o2_graph_with_spin                      
           1
    12.371661    0.000000    0.000000
     0.000000   29.834536    0.000000
     0.000000    0.000000   29.799900
   C    N    O    Pd
 154   4   1   1
Direct configuration=     1
   0.05228288  0.34127498  0.44022876
   0.05257055  0.67646941  0.57938328
   0.05234572  0.32300662  0.48452983
   0.15246712  0.31851465  0.50797443
   0.15223548  0.35451839  0.42022728
   0.05255552  0.32331918  0.57939233
   0.15264207  0.31903612  0.55591533
   0.05038767  0.40834043  0.69066548
   0.05259270  0.34174993  0.62361170
   0.15265800  0.68074770  0.55590255
   0.15253796  0.35632148  0.64284631
   0.14430834  0.47593948  0.71286455
   0.15121141  0.39040102  0.67623626
   0.04755108  0.54754367  0.70924782
   0.14430520  0.52388287  0.71287441
   0.05260605  0.65805065  0.62360897
   0.15255094  0.64347791  0.64283995
   0.35230247  0.31942689  0.55566427
   0.15227451  0.47596769  0.35013228
   0.25278135  0.32459799  0.57920090
   0.45161270  0.65565187  0.62291888
   0.15248228  0.68127820  0.50796196
   0.05226032  0.59151170  0.37311230
   0.05229759  0.65852909  0.44022073
   0.15224772  0.64529621  0.42021002
   0.05227233  0.54729037  0.35479541
   0.15227979  0.52384470  0.35012793
   0.05039244  0.59149477  0.69070070
   0.15225631  0.61142709  0.38633461
   0.05226593  0.45251717  0.35480044
   0.05224870  0.40829725  0.37312262
   0.15224649  0.38838925  0.38635397
   0.25228140  0.34118733  0.44003696
   0.25230629  0.32304771  0.48435656
   0.35229426  0.31862878  0.50784195
   0.35228464  0.35444195  0.42008908
   0.05235838  0.67679073  0.48452339
   0.85227686  0.40830512  0.37318230
   0.15122513  0.60941743  0.67624920
   0.45536972  0.58682956  0.68827063
   0.25227526  0.54730110  0.35476164
   0.35231603  0.39408646  0.67573497
   0.25303228  0.65566537  0.62292733
   0.24927453  0.58683355  0.68827019
   0.35228602  0.52383569  0.35010611
   0.25280019  0.67517742  0.57917893
   0.35231822  0.68034925  0.55563996
   0.35232366  0.60571357  0.67572799
   0.25232131  0.67675656  0.48433726
   0.35231367  0.68116554  0.50781875
   0.25226937  0.59155617  0.37302181
   0.25229554  0.65863238  0.44000957
   0.35229880  0.64539228  0.42004903
   0.35232226  0.64062774  0.64244176
   0.95226605  0.38842010  0.38647019
   0.25226880  0.45251763  0.35477934
   0.35229253  0.61149006  0.38626371
   0.25302005  0.34411262  0.62294977
   0.56033840  0.52388227  0.71289307
   0.24926685  0.41297639  0.68826591
   0.35231506  0.35915398  0.64246468
   0.35228050  0.47598615  0.35011828
   0.25226018  0.40826862  0.37305349
   0.35227837  0.38834654  0.38630828
   0.45229075  0.34118979  0.44003839
   0.45227669  0.32305107  0.48435743
   0.04753660  0.45228927  0.70921497
   0.55212250  0.31851928  0.50797271
   0.45182784  0.32460423  0.57919812
   0.55196046  0.31904542  0.55591262
   0.45536556  0.41298000  0.68826785
   0.45160680  0.34411993  0.62294626
   0.55208877  0.35633362  0.64284199
   0.56033197  0.47593803  0.71288473
   0.55342288  0.39040679  0.67623759
   0.55233396  0.35451896  0.42022863
   0.95238180  0.31832009  0.50805218
   0.55341962  0.60940535  0.67624269
   0.95227816  0.35418972  0.64374409
   0.55197510  0.68073506  0.55589233
   0.55209312  0.64345859  0.64282787
   0.45229492  0.67675798  0.48433050
   0.55213838  0.68127716  0.50795175
   0.45231231  0.59156600  0.37301056
   0.45230919  0.65864199  0.43999886
   0.55235197  0.64531430  0.42018988
   0.75230611  0.35458345  0.42036411
   0.45229690  0.54730672  0.35475562
   0.55233092  0.61144490  0.38631205
   0.45229082  0.45252037  0.35478397
   0.55228733  0.47597254  0.35013493
   0.45229773  0.40827153  0.37305648
   0.55231476  0.38839304  0.38635805
   0.65229156  0.34127386  0.44022903
   0.75220821  0.31832357  0.50805131
   0.65205032  0.32333000  0.57938821
   0.65232529  0.59152665  0.37309210
   0.65203147  0.65802842  0.62359487
   0.65425008  0.40834301  0.69067353
   0.65202741  0.34176373  0.62360617
   0.75234517  0.35419804  0.64374112
   0.65710457  0.45228813  0.70923628
   0.75502629  0.47602871  0.71428048
   0.75298013  0.38773007  0.67787911
   0.65709433  0.54754005  0.70925765
   0.85232169  0.45193385  0.70961684
   0.75215124  0.31826715  0.55598093
   0.65425214  0.59148659  0.69069742
   0.75297822  0.61210530  0.67790854
   0.65206187  0.67645114  0.57937289
   0.75216381  0.68152388  0.55597314
   0.75234659  0.64561495  0.64374785
   0.65226051  0.67679666  0.48451251
   0.75222747  0.68147230  0.50804271
   0.75503557  0.52380454  0.71429722
   0.55229118  0.52385125  0.35012051
   0.65224094  0.32300760  0.48452930
   0.65230981  0.65854599  0.44020362
   0.45184019  0.67516601  0.57917253
   0.75229040  0.52383668  0.35013032
   0.75230864  0.61139633  0.38645081
   0.65229338  0.45252228  0.35480608
   0.75228739  0.47597901  0.35013758
   0.65230880  0.40830188  0.37312619
   0.75229137  0.38842119  0.38647143
   0.85228502  0.34131412  0.44029538
   0.95165343  0.38772636  0.67787887
   0.85229331  0.32299389  0.48459208
   0.95226151  0.35458395  0.42036534
   0.85230370  0.32273550  0.57944657
   0.95245184  0.31826035  0.55598266
   0.85231864  0.40754747  0.69151939
   0.85230861  0.34081334  0.62379684
   0.85232236  0.54790823  0.70965723
   0.75232718  0.64522970  0.42034795
   0.94961740  0.47603015  0.71426726
   0.95227202  0.47597494  0.35013324
   0.65229983  0.54730050  0.35478336
   0.85231582  0.65899210  0.62380075
   0.85232209  0.59229904  0.69156700
   0.95166292  0.61211446  0.67791522
   0.85231304  0.67706044  0.57944452
   0.85229381  0.59150567  0.37316832
   0.95228988  0.64562925  0.64375681
   0.85231176  0.67680362  0.48458608
   0.95246340  0.68153326  0.55597941
   0.95239462  0.68147418  0.50804923
   0.85230405  0.65848728  0.44028919
   0.95227772  0.64522008  0.42035830
   0.85228739  0.54728118  0.35480303
   0.95227693  0.52383154  0.35013208
   0.95227940  0.61138767  0.38646179
   0.85227852  0.45252745  0.35481210
   0.94961408  0.52380563  0.71429002
   0.24047266  0.54537907  0.70675149
   0.46417257  0.45443623  0.70674944
   0.46416918  0.54538059  0.70676600
   0.24046320  0.45443424  0.70674298
   0.35229762  0.49984414  0.78590811
   0.35232076  0.49990485  0.71220637
