  80  80   0   0
  0.5985968E+02  0.1920000E-08  0.1920000E-08  0.1500000E-08  0.5000000E-15
  1.000000000000000E-004
  CAR 
 Fe2O3                                   
      4.93938717    -23.58999173  301     -3.37353223      1.00000000
    -23.590  0.0000E+00  0.0000E+00  0.0000E+00  0.0000E+00
    -23.495  0.0000E+00  0.0000E+00  0.0000E+00  0.0000E+00
    -23.400  0.0000E+00  0.0000E+00  0.0000E+00  0.0000E+00
    -23.305  0.0000E+00  0.0000E+00  0.0000E+00  0.0000E+00
    -23.210  0.0000E+00  0.0000E+00  0.0000E+00  0.0000E+00
    -23.115  0.0000E+00  0.0000E+00  0.0000E+00  0.0000E+00
    -23.019  0.0000E+00  0.0000E+00  0.0000E+00  0.0000E+00
    -22.924  0.0000E+00  0.0000E+00  0.0000E+00  0.0000E+00
    -22.829  0.0000E+00  0.0000E+00  0.0000E+00  0.0000E+00
    -22.734  0.4864E-18  0.4864E-18  0.4626E-19  0.4626E-19
    -22.639  0.1054E-15  0.1054E-15  0.1007E-16  0.1007E-16
    -22.544  0.1355E-13  0.1355E-13  0.1299E-14  0.1299E-14
    -22.449  0.1121E-11  0.1121E-11  0.1079E-12  0.1079E-12
    -22.354  0.5980E-10  0.5980E-10  0.5795E-11  0.5795E-11
    -22.259  0.2063E-08  0.2063E-08  0.2020E-09  0.2020E-09
    -22.164  0.4628E-07  0.4628E-07  0.4603E-08  0.4603E-08
    -22.068  0.6792E-06  0.6792E-06  0.6919E-07  0.6919E-07
    -21.973  0.6580E-05  0.6580E-05  0.6949E-06  0.6949E-06
    -21.878  0.4254E-04  0.4254E-04  0.4740E-05  0.4740E-05
    -21.783  0.1859E-03  0.1859E-03  0.2242E-04  0.2242E-04
    -21.688  0.5561E-03  0.5561E-03  0.7531E-04  0.7531E-04
    -21.593  0.1149E-02  0.1149E-02  0.1846E-03  0.1846E-03
    -21.498  0.1646E-02  0.1646E-02  0.3411E-03  0.3411E-03
    -21.403  0.1627E-02  0.1627E-02  0.4958E-03  0.4958E-03
    -21.308  0.1101E-02  0.1101E-02  0.6005E-03  0.6005E-03
    -21.213  0.5046E-03  0.5046E-03  0.6485E-03  0.6485E-03
    -21.117  0.1550E-03  0.1550E-03  0.6632E-03  0.6632E-03
    -21.022  0.3163E-04  0.3163E-04  0.6662E-03  0.6662E-03
    -20.927  0.4314E-05  0.4314E-05  0.6666E-03  0.6666E-03
    -20.832  0.1155E-05  0.1155E-05  0.6667E-03  0.6667E-03
    -20.737  0.7187E-05  0.7187E-05  0.6674E-03  0.6674E-03
    -20.642  0.4359E-04  0.4359E-04  0.6716E-03  0.6716E-03
    -20.547  0.1773E-03  0.1773E-03  0.6884E-03  0.6884E-03
    -20.452  0.4894E-03  0.4894E-03  0.7350E-03  0.7350E-03
    -20.357  0.9320E-03  0.9320E-03  0.8236E-03  0.8236E-03
    -20.262  0.1255E-02  0.1255E-02  0.9430E-03  0.9430E-03
    -20.166  0.1275E-02  0.1275E-02  0.1064E-02  0.1064E-02
    -20.071  0.1208E-02  0.1208E-02  0.1179E-02  0.1179E-02
    -19.976  0.1464E-02  0.1464E-02  0.1318E-02  0.1318E-02
    -19.881  0.2022E-02  0.2022E-02  0.1511E-02  0.1511E-02
    -19.786  0.2377E-02  0.2377E-02  0.1737E-02  0.1737E-02
    -19.691  0.2253E-02  0.2253E-02  0.1951E-02  0.1951E-02
    -19.596  0.1894E-02  0.1894E-02  0.2131E-02  0.2131E-02
    -19.501  0.1530E-02  0.1530E-02  0.2277E-02  0.2277E-02
    -19.406  0.1143E-02  0.1143E-02  0.2385E-02  0.2385E-02
    -19.311  0.7414E-03  0.7414E-03  0.2456E-02  0.2456E-02
    -19.215  0.4850E-03  0.4850E-03  0.2502E-02  0.2502E-02
    -19.120  0.5715E-03  0.5715E-03  0.2556E-02  0.2556E-02
    -19.025  0.1038E-02  0.1038E-02  0.2655E-02  0.2655E-02
    -18.930  0.1674E-02  0.1674E-02  0.2814E-02  0.2814E-02
    -18.835  0.2158E-02  0.2158E-02  0.3019E-02  0.3019E-02
    -18.740  0.2232E-02  0.2232E-02  0.3232E-02  0.3232E-02
    -18.645  0.1903E-02  0.1903E-02  0.3413E-02  0.3413E-02
    -18.550  0.1586E-02  0.1586E-02  0.3563E-02  0.3563E-02
    -18.455  0.1675E-02  0.1675E-02  0.3723E-02  0.3723E-02
    -18.360  0.2053E-02  0.2053E-02  0.3918E-02  0.3918E-02
    -18.265  0.2256E-02  0.2256E-02  0.4133E-02  0.4133E-02
    -18.169  0.1965E-02  0.1965E-02  0.4319E-02  0.4319E-02
    -18.074  0.1361E-02  0.1361E-02  0.4449E-02  0.4449E-02
    -17.979  0.9647E-03  0.9647E-03  0.4541E-02  0.4541E-02
    -17.884  0.1002E-02  0.1002E-02  0.4636E-02  0.4636E-02
    -17.789  0.1214E-02  0.1214E-02  0.4751E-02  0.4751E-02
    -17.694  0.1323E-02  0.1323E-02  0.4877E-02  0.4877E-02
    -17.599  0.1253E-02  0.1253E-02  0.4996E-02  0.4996E-02
    -17.504  0.9709E-03  0.9709E-03  0.5089E-02  0.5089E-02
    -17.409  0.5792E-03  0.5792E-03  0.5144E-02  0.5144E-02
    -17.314  0.3594E-03  0.3594E-03  0.5178E-02  0.5178E-02
    -17.218  0.5158E-03  0.5158E-03  0.5227E-02  0.5227E-02
    -17.123  0.9744E-03  0.9744E-03  0.5319E-02  0.5319E-02
    -17.028  0.1375E-02  0.1375E-02  0.5450E-02  0.5450E-02
    -16.933  0.1446E-02  0.1446E-02  0.5588E-02  0.5588E-02
    -16.838  0.1413E-02  0.1413E-02  0.5722E-02  0.5722E-02
    -16.743  0.1606E-02  0.1606E-02  0.5875E-02  0.5875E-02
    -16.648  0.1819E-02  0.1819E-02  0.6048E-02  0.6048E-02
    -16.553  0.1664E-02  0.1664E-02  0.6206E-02  0.6206E-02
    -16.458  0.1304E-02  0.1304E-02  0.6330E-02  0.6330E-02
    -16.363  0.1202E-02  0.1202E-02  0.6445E-02  0.6445E-02
    -16.267  0.1350E-02  0.1350E-02  0.6573E-02  0.6573E-02
    -16.172  0.1299E-02  0.1299E-02  0.6696E-02  0.6696E-02
    -16.077  0.8843E-03  0.8843E-03  0.6781E-02  0.6781E-02
    -15.982  0.4048E-03  0.4048E-03  0.6819E-02  0.6819E-02
    -15.887  0.1232E-03  0.1232E-03  0.6831E-02  0.6831E-02
    -15.792  0.3045E-04  0.3045E-04  0.6834E-02  0.6834E-02
    -15.697  0.4653E-04  0.4653E-04  0.6838E-02  0.6838E-02
    -15.602  0.2052E-03  0.2052E-03  0.6858E-02  0.6858E-02
    -15.507  0.6417E-03  0.6417E-03  0.6919E-02  0.6919E-02
    -15.412  0.1348E-02  0.1348E-02  0.7047E-02  0.7047E-02
    -15.316  0.1951E-02  0.1951E-02  0.7232E-02  0.7232E-02
    -15.221  0.2061E-02  0.2061E-02  0.7428E-02  0.7428E-02
    -15.126  0.1747E-02  0.1747E-02  0.7594E-02  0.7594E-02
    -15.031  0.1299E-02  0.1299E-02  0.7718E-02  0.7718E-02
    -14.936  0.8920E-03  0.8920E-03  0.7803E-02  0.7803E-02
    -14.841  0.6532E-03  0.6532E-03  0.7865E-02  0.7865E-02
    -14.746  0.6044E-03  0.6044E-03  0.7922E-02  0.7922E-02
    -14.651  0.6370E-03  0.6370E-03  0.7983E-02  0.7983E-02
    -14.556  0.7438E-03  0.7438E-03  0.8054E-02  0.8054E-02
    -14.461  0.9985E-03  0.9985E-03  0.8149E-02  0.8149E-02
    -14.365  0.1338E-02  0.1338E-02  0.8276E-02  0.8276E-02
    -14.270  0.1625E-02  0.1625E-02  0.8430E-02  0.8430E-02
    -14.175  0.1799E-02  0.1799E-02  0.8601E-02  0.8601E-02
    -14.080  0.1754E-02  0.1754E-02  0.8768E-02  0.8768E-02
    -13.985  0.1353E-02  0.1353E-02  0.8897E-02  0.8897E-02
    -13.890  0.7672E-03  0.7672E-03  0.8970E-02  0.8970E-02
    -13.795  0.4023E-03  0.4023E-03  0.9008E-02  0.9008E-02
    -13.700  0.4491E-03  0.4491E-03  0.9051E-02  0.9051E-02
    -13.605  0.7605E-03  0.7605E-03  0.9123E-02  0.9123E-02
    -13.510  0.1011E-02  0.1011E-02  0.9219E-02  0.9219E-02
    -13.415  0.1029E-02  0.1029E-02  0.9317E-02  0.9317E-02
    -13.319  0.9894E-03  0.9894E-03  0.9411E-02  0.9411E-02
    -13.224  0.1124E-02  0.1124E-02  0.9518E-02  0.9518E-02
    -13.129  0.1408E-02  0.1408E-02  0.9652E-02  0.9652E-02
    -13.034  0.1540E-02  0.1540E-02  0.9799E-02  0.9799E-02
    -12.939  0.1325E-02  0.1325E-02  0.9925E-02  0.9925E-02
    -12.844  0.1090E-02  0.1090E-02  0.1003E-01  0.1003E-01
    -12.749  0.1267E-02  0.1267E-02  0.1015E-01  0.1015E-01
    -12.654  0.1675E-02  0.1675E-02  0.1031E-01  0.1031E-01
    -12.559  0.1716E-02  0.1716E-02  0.1047E-01  0.1047E-01
    -12.464  0.1220E-02  0.1220E-02  0.1059E-01  0.1059E-01
    -12.368  0.5938E-03  0.5938E-03  0.1064E-01  0.1064E-01
    -12.273  0.2138E-03  0.2138E-03  0.1066E-01  0.1066E-01
    -12.178  0.1370E-03  0.1370E-03  0.1068E-01  0.1068E-01
    -12.083  0.3201E-03  0.3201E-03  0.1071E-01  0.1071E-01
    -11.988  0.7361E-03  0.7361E-03  0.1078E-01  0.1078E-01
    -11.893  0.1244E-02  0.1244E-02  0.1090E-01  0.1090E-01
    -11.798  0.1562E-02  0.1562E-02  0.1104E-01  0.1104E-01
    -11.703  0.1524E-02  0.1524E-02  0.1119E-01  0.1119E-01
    -11.608  0.1328E-02  0.1328E-02  0.1132E-01  0.1132E-01
    -11.513  0.1361E-02  0.1361E-02  0.1144E-01  0.1144E-01
    -11.417  0.1733E-02  0.1733E-02  0.1161E-01  0.1161E-01
    -11.322  0.2159E-02  0.2159E-02  0.1182E-01  0.1182E-01
    -11.227  0.2349E-02  0.2349E-02  0.1204E-01  0.1204E-01
    -11.132  0.2272E-02  0.2272E-02  0.1225E-01  0.1225E-01
    -11.037  0.1952E-02  0.1952E-02  0.1244E-01  0.1244E-01
    -10.942  0.1366E-02  0.1366E-02  0.1257E-01  0.1257E-01
    -10.847  0.7021E-03  0.7021E-03  0.1264E-01  0.1264E-01
    -10.752  0.2525E-03  0.2525E-03  0.1266E-01  0.1266E-01
    -10.657  0.8955E-04  0.8955E-04  0.1267E-01  0.1267E-01
    -10.562  0.1295E-03  0.1295E-03  0.1268E-01  0.1268E-01
    -10.466  0.3061E-03  0.3061E-03  0.1271E-01  0.1271E-01
    -10.371  0.5381E-03  0.5381E-03  0.1276E-01  0.1276E-01
    -10.276  0.7289E-03  0.7289E-03  0.1283E-01  0.1283E-01
    -10.181  0.9072E-03  0.9072E-03  0.1292E-01  0.1292E-01
    -10.086  0.1265E-02  0.1265E-02  0.1304E-01  0.1304E-01
     -9.991  0.1968E-02  0.1968E-02  0.1322E-01  0.1322E-01
     -9.896  0.2848E-02  0.2848E-02  0.1350E-01  0.1350E-01
     -9.801  0.3427E-02  0.3427E-02  0.1382E-01  0.1382E-01
     -9.706  0.3404E-02  0.3404E-02  0.1415E-01  0.1415E-01
     -9.611  0.2886E-02  0.2886E-02  0.1442E-01  0.1442E-01
     -9.515  0.2201E-02  0.2201E-02  0.1463E-01  0.1463E-01
     -9.420  0.1677E-02  0.1677E-02  0.1479E-01  0.1479E-01
     -9.325  0.1428E-02  0.1428E-02  0.1492E-01  0.1492E-01
     -9.230  0.1375E-02  0.1375E-02  0.1506E-01  0.1506E-01
     -9.135  0.1435E-02  0.1435E-02  0.1519E-01  0.1519E-01
     -9.040  0.1523E-02  0.1523E-02  0.1534E-01  0.1534E-01
     -8.945  0.1470E-02  0.1470E-02  0.1548E-01  0.1548E-01
     -8.850  0.1191E-02  0.1191E-02  0.1559E-01  0.1559E-01
     -8.755  0.9077E-03  0.9077E-03  0.1568E-01  0.1568E-01
     -8.660  0.9735E-03  0.9735E-03  0.1577E-01  0.1577E-01
     -8.565  0.1458E-02  0.1458E-02  0.1591E-01  0.1591E-01
     -8.469  0.2052E-02  0.2052E-02  0.1610E-01  0.1610E-01
     -8.374  0.2301E-02  0.2301E-02  0.1632E-01  0.1632E-01
     -8.279  0.2059E-02  0.2059E-02  0.1652E-01  0.1652E-01
     -8.184  0.1749E-02  0.1749E-02  0.1668E-01  0.1668E-01
     -8.089  0.1875E-02  0.1875E-02  0.1686E-01  0.1686E-01
     -7.994  0.2345E-02  0.2345E-02  0.1708E-01  0.1708E-01
     -7.899  0.2748E-02  0.2748E-02  0.1735E-01  0.1735E-01
     -7.804  0.3071E-02  0.3071E-02  0.1764E-01  0.1764E-01
     -7.709  0.3610E-02  0.3610E-02  0.1798E-01  0.1798E-01
     -7.614  0.4472E-02  0.4472E-02  0.1841E-01  0.1841E-01
     -7.518  0.5312E-02  0.5312E-02  0.1891E-01  0.1891E-01
     -7.423  0.5449E-02  0.5449E-02  0.1943E-01  0.1943E-01
     -7.328  0.4622E-02  0.4622E-02  0.1987E-01  0.1987E-01
     -7.233  0.3453E-02  0.3453E-02  0.2020E-01  0.2020E-01
     -7.138  0.2695E-02  0.2695E-02  0.2045E-01  0.2045E-01
     -7.043  0.2402E-02  0.2402E-02  0.2068E-01  0.2068E-01
     -6.948  0.2214E-02  0.2214E-02  0.2089E-01  0.2089E-01
     -6.853  0.1938E-02  0.1938E-02  0.2108E-01  0.2108E-01
     -6.758  0.1631E-02  0.1631E-02  0.2123E-01  0.2123E-01
     -6.663  0.1415E-02  0.1415E-02  0.2137E-01  0.2137E-01
     -6.567  0.1377E-02  0.1377E-02  0.2150E-01  0.2150E-01
     -6.472  0.1582E-02  0.1582E-02  0.2165E-01  0.2165E-01
     -6.377  0.2025E-02  0.2025E-02  0.2184E-01  0.2184E-01
     -6.282  0.2611E-02  0.2611E-02  0.2209E-01  0.2209E-01
     -6.187  0.3168E-02  0.3168E-02  0.2239E-01  0.2239E-01
     -6.092  0.3446E-02  0.3446E-02  0.2272E-01  0.2272E-01
     -5.997  0.3365E-02  0.3365E-02  0.2304E-01  0.2304E-01
     -5.902  0.3141E-02  0.3141E-02  0.2334E-01  0.2334E-01
     -5.807  0.2986E-02  0.2986E-02  0.2362E-01  0.2362E-01
     -5.712  0.2960E-02  0.2960E-02  0.2390E-01  0.2390E-01
     -5.616  0.3057E-02  0.3057E-02  0.2419E-01  0.2419E-01
     -5.521  0.3252E-02  0.3252E-02  0.2450E-01  0.2450E-01
     -5.426  0.3617E-02  0.3617E-02  0.2485E-01  0.2485E-01
     -5.331  0.4285E-02  0.4285E-02  0.2525E-01  0.2525E-01
     -5.236  0.4999E-02  0.4999E-02  0.2573E-01  0.2573E-01
     -5.141  0.5131E-02  0.5131E-02  0.2622E-01  0.2622E-01
     -5.046  0.4544E-02  0.4544E-02  0.2665E-01  0.2665E-01
     -4.951  0.3755E-02  0.3755E-02  0.2701E-01  0.2701E-01
     -4.856  0.3195E-02  0.3195E-02  0.2731E-01  0.2731E-01
     -4.761  0.2941E-02  0.2941E-02  0.2759E-01  0.2759E-01
     -4.666  0.2910E-02  0.2910E-02  0.2787E-01  0.2787E-01
     -4.570  0.2961E-02  0.2961E-02  0.2815E-01  0.2815E-01
     -4.475  0.2981E-02  0.2981E-02  0.2843E-01  0.2843E-01
     -4.380  0.2906E-02  0.2906E-02  0.2871E-01  0.2871E-01
     -4.285  0.2704E-02  0.2704E-02  0.2897E-01  0.2897E-01
     -4.190  0.2437E-02  0.2437E-02  0.2920E-01  0.2920E-01
     -4.095  0.2293E-02  0.2293E-02  0.2941E-01  0.2941E-01
     -4.000  0.2418E-02  0.2418E-02  0.2964E-01  0.2964E-01
     -3.905  0.2645E-02  0.2645E-02  0.2990E-01  0.2990E-01
     -3.810  0.2556E-02  0.2556E-02  0.3014E-01  0.3014E-01
     -3.715  0.1990E-02  0.1990E-02  0.3033E-01  0.3033E-01
     -3.619  0.1286E-02  0.1286E-02  0.3045E-01  0.3045E-01
     -3.524  0.8681E-03  0.8681E-03  0.3053E-01  0.3053E-01
     -3.429  0.8343E-03  0.8343E-03  0.3061E-01  0.3061E-01
     -3.334  0.1010E-02  0.1010E-02  0.3071E-01  0.3071E-01
     -3.239  0.1185E-02  0.1185E-02  0.3082E-01  0.3082E-01
     -3.144  0.1212E-02  0.1212E-02  0.3094E-01  0.3094E-01
     -3.049  0.1071E-02  0.1071E-02  0.3104E-01  0.3104E-01
     -2.954  0.8925E-03  0.8925E-03  0.3112E-01  0.3112E-01
     -2.859  0.8718E-03  0.8718E-03  0.3121E-01  0.3121E-01
     -2.764  0.1089E-02  0.1089E-02  0.3131E-01  0.3131E-01
     -2.668  0.1348E-02  0.1348E-02  0.3144E-01  0.3144E-01
     -2.573  0.1381E-02  0.1381E-02  0.3157E-01  0.3157E-01
     -2.478  0.1192E-02  0.1192E-02  0.3168E-01  0.3168E-01
     -2.383  0.9694E-03  0.9694E-03  0.3178E-01  0.3178E-01
     -2.288  0.8500E-03  0.8500E-03  0.3186E-01  0.3186E-01
     -2.193  0.8523E-03  0.8523E-03  0.3194E-01  0.3194E-01
     -2.098  0.8691E-03  0.8691E-03  0.3202E-01  0.3202E-01
     -2.003  0.7740E-03  0.7740E-03  0.3209E-01  0.3209E-01
     -1.908  0.6057E-03  0.6057E-03  0.3215E-01  0.3215E-01
     -1.813  0.5527E-03  0.5527E-03  0.3220E-01  0.3220E-01
     -1.717  0.7156E-03  0.7156E-03  0.3227E-01  0.3227E-01
     -1.622  0.1006E-02  0.1006E-02  0.3237E-01  0.3237E-01
     -1.527  0.1315E-02  0.1315E-02  0.3249E-01  0.3249E-01
     -1.432  0.1632E-02  0.1632E-02  0.3265E-01  0.3265E-01
     -1.337  0.1997E-02  0.1997E-02  0.3284E-01  0.3284E-01
     -1.242  0.2409E-02  0.2409E-02  0.3307E-01  0.3307E-01
     -1.147  0.2830E-02  0.2830E-02  0.3334E-01  0.3334E-01
     -1.052  0.3201E-02  0.3201E-02  0.3364E-01  0.3364E-01
     -0.957  0.3390E-02  0.3390E-02  0.3396E-01  0.3396E-01
     -0.862  0.3280E-02  0.3280E-02  0.3427E-01  0.3427E-01
     -0.766  0.2914E-02  0.2914E-02  0.3455E-01  0.3455E-01
     -0.671  0.2485E-02  0.2485E-02  0.3479E-01  0.3479E-01
     -0.576  0.2189E-02  0.2189E-02  0.3500E-01  0.3500E-01
     -0.481  0.1997E-02  0.1997E-02  0.3519E-01  0.3519E-01
     -0.386  0.1657E-02  0.1657E-02  0.3534E-01  0.3534E-01
     -0.291  0.1149E-02  0.1149E-02  0.3545E-01  0.3545E-01
     -0.196  0.8258E-03  0.8258E-03  0.3553E-01  0.3553E-01
     -0.101  0.8996E-03  0.8996E-03  0.3562E-01  0.3562E-01
     -0.006  0.1179E-02  0.1179E-02  0.3573E-01  0.3573E-01
      0.089  0.1428E-02  0.1428E-02  0.3586E-01  0.3586E-01
      0.184  0.1627E-02  0.1627E-02  0.3602E-01  0.3602E-01
      0.280  0.1727E-02  0.1727E-02  0.3618E-01  0.3618E-01
      0.375  0.1568E-02  0.1568E-02  0.3633E-01  0.3633E-01
      0.470  0.1194E-02  0.1194E-02  0.3645E-01  0.3645E-01
      0.565  0.9290E-03  0.9290E-03  0.3653E-01  0.3653E-01
      0.660  0.9586E-03  0.9586E-03  0.3663E-01  0.3663E-01
      0.755  0.1100E-02  0.1100E-02  0.3673E-01  0.3673E-01
      0.850  0.1219E-02  0.1219E-02  0.3685E-01  0.3685E-01
      0.945  0.1543E-02  0.1543E-02  0.3699E-01  0.3699E-01
      1.040  0.2289E-02  0.2289E-02  0.3721E-01  0.3721E-01
      1.135  0.3222E-02  0.3222E-02  0.3752E-01  0.3752E-01
      1.231  0.3788E-02  0.3788E-02  0.3788E-01  0.3788E-01
      1.326  0.3629E-02  0.3629E-02  0.3822E-01  0.3822E-01
      1.421  0.2965E-02  0.2965E-02  0.3850E-01  0.3850E-01
      1.516  0.2373E-02  0.2373E-02  0.3873E-01  0.3873E-01
      1.611  0.2237E-02  0.2237E-02  0.3894E-01  0.3894E-01
      1.706  0.2516E-02  0.2516E-02  0.3918E-01  0.3918E-01
      1.801  0.3010E-02  0.3010E-02  0.3947E-01  0.3947E-01
      1.896  0.3596E-02  0.3596E-02  0.3981E-01  0.3981E-01
      1.991  0.4175E-02  0.4175E-02  0.4021E-01  0.4021E-01
      2.086  0.4713E-02  0.4713E-02  0.4066E-01  0.4066E-01
      2.182  0.5280E-02  0.5280E-02  0.4116E-01  0.4116E-01
      2.277  0.5690E-02  0.5690E-02  0.4170E-01  0.4170E-01
      2.372  0.5474E-02  0.5474E-02  0.4222E-01  0.4222E-01
      2.467  0.4627E-02  0.4627E-02  0.4266E-01  0.4266E-01
      2.562  0.3851E-02  0.3851E-02  0.4303E-01  0.4303E-01
      2.657  0.3689E-02  0.3689E-02  0.4338E-01  0.4338E-01
      2.752  0.3861E-02  0.3861E-02  0.4374E-01  0.4374E-01
      2.847  0.3707E-02  0.3707E-02  0.4410E-01  0.4410E-01
      2.942  0.2939E-02  0.2939E-02  0.4438E-01  0.4438E-01
      3.037  0.1831E-02  0.1831E-02  0.4455E-01  0.4455E-01
      3.133  0.8581E-03  0.8581E-03  0.4463E-01  0.4463E-01
      3.228  0.2895E-03  0.2895E-03  0.4466E-01  0.4466E-01
      3.323  0.6769E-04  0.6769E-04  0.4467E-01  0.4467E-01
      3.418  0.1067E-04  0.1067E-04  0.4467E-01  0.4467E-01
      3.513  0.1113E-05  0.1113E-05  0.4467E-01  0.4467E-01
      3.608  0.7605E-07  0.7605E-07  0.4467E-01  0.4467E-01
      3.703  0.3377E-08  0.3377E-08  0.4467E-01  0.4467E-01
      3.798  0.9702E-10  0.9702E-10  0.4467E-01  0.4467E-01
      3.893  0.1798E-11  0.1798E-11  0.4467E-01  0.4467E-01
      3.988  0.2143E-13  0.2143E-13  0.4467E-01  0.4467E-01
      4.084  0.1638E-15  0.1638E-15  0.4467E-01  0.4467E-01
      4.179  0.7783E-18  0.7783E-18  0.4467E-01  0.4467E-01
      4.274  0.0000E+00  0.0000E+00  0.4467E-01  0.4467E-01
      4.369  0.0000E+00  0.0000E+00  0.4467E-01  0.4467E-01
      4.464  0.0000E+00  0.0000E+00  0.4467E-01  0.4467E-01
      4.559  0.0000E+00  0.0000E+00  0.4467E-01  0.4467E-01
      4.654  0.0000E+00  0.0000E+00  0.4467E-01  0.4467E-01
      4.749  0.0000E+00  0.0000E+00  0.4467E-01  0.4467E-01
      4.844  0.0000E+00  0.0000E+00  0.4467E-01  0.4467E-01
      4.939  0.0000E+00  0.0000E+00  0.4467E-01  0.4467E-01
