   80   80 6000    2
  0.5985968E+02  0.1920000E-08  0.1920000E-08  0.1500000E-08  0.5000000E-15
  1.000000000000000E-004
  CAR 
 Fe2O3                                   
    368      1    268
 
  0.1262379E-14  0.1262379E-14  0.1262379E-14  0.1000000E+01
    1      -21.589992    -21.589992
    2      -21.510118    -21.510118
    3      -21.473903    -21.473903
    4      -21.438099    -21.438099
    5      -20.360417    -20.360417
    6      -20.280474    -20.280474
    7      -20.200217    -20.200217
    8      -19.916019    -19.916019
    9      -19.901024    -19.901024
   10      -19.839875    -19.839875
   11      -19.795356    -19.795356
   12      -19.777388    -19.777388
   13      -19.596775    -19.596775
   14      -19.571478    -19.571478
   15      -19.415185    -19.415185
   16      -18.990557    -18.990557
   17      -18.963280    -18.963280
   18      -18.852055    -18.852055
   19      -18.773356    -18.773356
   20      -18.753127    -18.753127
   21      -18.746628    -18.746628
   22      -18.482932    -18.482932
   23      -18.427089    -18.427089
   24      -18.315074    -18.315074
   25      -18.287031    -18.287031
   26      -18.247446    -18.247446
   27      -18.199937    -18.199937
   28      -17.865866    -17.865866
   29      -17.823418    -17.823418
   30      -17.622974    -17.622974
   31      -17.596953    -17.596953
   32      -17.089431    -17.089431
   33      -17.054979    -17.054979
   34      -17.000379    -17.000379
   35      -16.742544    -16.742544
   36      -16.706264    -16.706264
   37      -16.631461    -16.631461
   38      -16.619274    -16.619274
   39      -16.321616    -16.321616
   40      -16.236902    -16.236902
   41      -16.226717    -16.226717
   42      -15.380493    -15.380493
   43      -15.367518    -15.367518
   44      -15.317558    -15.317558
   45      -15.294879    -15.294879
   46      -15.136059    -15.136059
   47      -15.059915    -15.059915
   48      -14.751653    -14.751653
   49      -14.481777    -14.481777
   50      -14.339473    -14.339473
   51      -14.306507    -14.306507
   52      -14.118035    -14.118035
   53      -14.105776    -14.105776
   54      -14.088230    -14.088230
   55      -13.577601    -13.577601
   56      -13.530478    -13.530478
   57      -13.299955    -13.299955
   58      -13.095203    -13.095203
   59      -13.075643    -13.075643
   60      -13.042545    -13.042545
   61      -12.690162    -12.690162
   62      -12.668303    -12.668303
   63      -12.632924    -12.632924
   64      -12.566470    -12.566470
   65      -11.948153    -11.948153
   66      -11.851130    -11.851130
   67      -11.794911    -11.794911
   68      -11.705952    -11.705952
   69      -11.456620    -11.456620
   70      -11.427599    -11.427599
   71      -11.309336    -11.309336
   72      -11.286263    -11.286263
   73      -11.255035    -11.255035
   74      -11.088660    -11.088660
   75      -11.071692    -11.071692
   76      -11.049076    -11.049076
   77      -10.370218    -10.370218
   78      -10.164391    -10.164391
   79       -9.946126     -9.946126
   80       -9.942395     -9.942395
   81       -9.909539     -9.909539
   82       -9.864215     -9.864215
   83       -9.817894     -9.817894
   84       -9.792091     -9.792091
   85       -9.744221     -9.744221
   86       -9.669550     -9.669550
   87       -9.660662     -9.660662
   88       -9.603009     -9.603009
   89       -9.449062     -9.449062
   90       -9.339276     -9.339276
   91       -9.200755     -9.200755
   92       -9.082299     -9.082299
   93       -8.974393     -8.974393
   94       -8.933457     -8.933457
   95       -8.617130     -8.617130
   96       -8.503517     -8.503517
   97       -8.441089     -8.441089
   98       -8.410026     -8.410026
   99       -8.393512     -8.393512
  100       -8.296219     -8.296219
  101       -8.053037     -8.053037
  102       -8.016658     -8.016658
  103       -8.004574     -8.004574
  104       -7.981240     -7.981240
  105       -7.836598     -7.836598
  106       -7.791158     -7.791158
  107       -7.778728     -7.778728
  108       -7.712112     -7.712112
  109       -7.634919     -7.634919
  110       -7.610539     -7.610539
  111       -7.561358     -7.561358
  112       -7.556509     -7.556509
  113       -7.531499     -7.531499
  114       -7.523548     -7.523548
  115       -7.494402     -7.494402
  116       -7.450202     -7.450202
  117       -7.430125     -7.430125
  118       -7.425809     -7.425809
  119       -7.411424     -7.411424
  120       -7.392820     -7.392820
  121       -7.348070     -7.348070
  122       -7.197888     -7.197888
  123       -7.163933     -7.163933
  124       -7.079902     -7.079902
  125       -7.030217     -7.030217
  126       -6.941067     -6.941067
  127       -6.889341     -6.889341
  128       -6.753436     -6.753436
  129       -6.635951     -6.635951
  130       -6.459264     -6.459264
  131       -6.408172     -6.408172
  132       -6.314600     -6.314600
  133       -6.257376     -6.257376
  134       -6.191795     -6.191795
  135       -6.161165     -6.161165
  136       -6.140033     -6.140033
  137       -6.096450     -6.096450
  138       -6.082882     -6.082882
  139       -5.968818     -5.968818
  140       -5.932776     -5.932776
  141       -5.876688     -5.876688
  142       -5.844976     -5.844976
  143       -5.732480     -5.732480
  144       -5.719279     -5.719279
  145       -5.647548     -5.647548
  146       -5.569417     -5.569417
  147       -5.554975     -5.554975
  148       -5.495431     -5.495431
  149       -5.455602     -5.455602
  150       -5.378025     -5.378025
  151       -5.321185     -5.321185
  152       -5.274452     -5.274452
  153       -5.266765     -5.266765
  154       -5.244474     -5.244474
  155       -5.224265     -5.224265
  156       -5.208938     -5.208938
  157       -5.196918     -5.196918
  158       -5.184837     -5.184837
  159       -5.155711     -5.155711
  160       -5.082930     -5.082930
  161       -5.026969     -5.026969
  162       -4.983511     -4.983511
  163       -4.960237     -4.960237
  164       -4.897544     -4.897544
  165       -4.808315     -4.808315
  166       -4.746985     -4.746985
  167       -4.730847     -4.730847
  168       -4.605309     -4.605309
  169       -4.599134     -4.599134
  170       -4.566935     -4.566935
  171       -4.467064     -4.467064
  172       -4.409095     -4.409095
  173       -4.389132     -4.389132
  174       -4.328397     -4.328397
  175       -4.241243     -4.241243
  176       -4.192109     -4.192109
  177       -4.084601     -4.084601
  178       -3.993118     -3.993118
  179       -3.911623     -3.911623
  180       -3.897889     -3.897889
  181       -3.867229     -3.867229
  182       -3.825791     -3.825791
  183       -3.717698     -3.717698
  184       -3.440149     -3.440149
  185       -3.264178     -3.264178
  186       -3.193097     -3.193097
  187       -3.023786     -3.023786
  188       -2.747213     -2.747213
  189       -2.694872     -2.694872
  190       -2.595970     -2.595970
  191       -2.429725     -2.429725
  192       -2.200155     -2.200155
  193       -2.046858     -2.046858
  194       -1.708976     -1.708976
  195       -1.552980     -1.552980
  196       -1.462304     -1.462304
  197       -1.331181     -1.331181
  198       -1.294527     -1.294527
  199       -1.235079     -1.235079
  200       -1.137479     -1.137479
  201       -1.112462     -1.112462
  202       -1.064173     -1.064173
  203       -1.005686     -1.005686
  204       -0.962665     -0.962665
  205       -0.927744     -0.927744
  206       -0.918692     -0.918692
  207       -0.804322     -0.804322
  208       -0.763155     -0.763155
  209       -0.750541     -0.750541
  210       -0.603639     -0.603639
  211       -0.505501     -0.505501
  212       -0.476792     -0.476792
  213       -0.413550     -0.413550
  214       -0.071247     -0.071247
  215       -0.009472     -0.009472
  216        0.161708      0.161708
  217        0.222098      0.222098
  218        0.312405      0.312405
  219        0.369212      0.369213
  220        0.673806      0.673807
  221        0.734390      0.734389
  222        0.950342      0.950343
  223        1.062127      1.062128
  224        1.103145      1.103145
  225        1.135440      1.135439
  226        1.155682      1.155683
  227        1.205797      1.205797
  228        1.231148      1.231147
  229        1.269000      1.269000
  230        1.305300      1.305300
  231        1.315659      1.315663
  232        1.425851      1.425851
  233        1.521789      1.521790
  234        1.643883      1.643887
  235        1.683941      1.683942
  236        1.730562      1.730563
  237        1.803655      1.803658
  238        1.876689      1.876692
  239        1.902046      1.902048
  240        1.952710      1.952709
  241        1.953183      1.953182
  242        1.999859      1.999858
  243        2.037906      2.037906
  244        2.073625      2.073627
  245        2.135863      2.135863
  246        2.158889      2.158890
  247        2.182838      2.182838
  248        2.228394      2.228395
  249        2.249103      2.249104
  250        2.264055      2.264059
  251        2.280069      2.280071
  252        2.303010      2.303010
  253        2.320254      2.320256
  254        2.347502      2.347503
  255        2.371370      2.371366
  256        2.395768      2.395766
  257        2.434629      2.434630
  258        2.537391      2.537391
  259        2.593269      2.593270
  260        2.648554      2.648555
  261        2.696105      2.696106
  262        2.722647      2.722648
  263        2.766375      2.766375
  264        2.777807      2.777809
  265        2.800170      2.800170
  266        2.858109      2.858110
  267        2.928813      2.928814
  268        2.939386      2.939387
