       N       E                     dE             d eps       ncg     rms          rms(c)
RMM:   1     0.462838383835E+04    0.46284E+04   -0.81667E+04   536   0.704E+02
RMM:   2     0.192820346561E+04   -0.27002E+04   -0.32042E+04   536   0.168E+02
RMM:   3     0.920812836296E+03   -0.10074E+04   -0.16109E+04   536   0.138E+02
RMM:   4    -0.647160529948E+02   -0.98553E+03   -0.90662E+03   536   0.126E+02
RMM:   5    -0.472189752342E+03   -0.40747E+03   -0.35302E+03   536   0.879E+01
RMM:   6    -0.614375975317E+03   -0.14219E+03   -0.11372E+03   536   0.548E+01
RMM:   7    -0.653487077851E+03   -0.39111E+02   -0.34278E+02   536   0.311E+01
RMM:   8    -0.669266245926E+03   -0.15779E+02   -0.12003E+02   536   0.188E+01
RMM:   9    -0.677707815464E+03   -0.84416E+01   -0.75871E+01  1226   0.112E+01
RMM:  10    -0.679231889498E+03   -0.15241E+01   -0.10686E+01  1422   0.347E+00
RMM:  11    -0.679426564258E+03   -0.19467E+00   -0.11102E+00  1301   0.692E-01
RMM:  12    -0.679459401141E+03   -0.32837E-01   -0.18213E-01  1372   0.214E-01    0.584E+01
RMM:  13    -0.541408159470E+03    0.13805E+03   -0.47478E+02  1087   0.373E+01    0.432E+01
RMM:  14    -0.507263789714E+03    0.34144E+02   -0.63689E+01  1073   0.171E+01    0.254E+01
RMM:  15    -0.493806010822E+03    0.13458E+02   -0.47178E+01  1072   0.119E+01    0.194E+01
RMM:  16    -0.535065675598E+03   -0.41260E+02   -0.29391E+01  1073   0.850E+00    0.161E+01
RMM:  17    -0.551314256370E+03   -0.16249E+02   -0.10569E+01  1077   0.535E+00    0.815E+00
RMM:  18    -0.579641004037E+03   -0.28327E+02   -0.12640E+01  1073   0.509E+00    0.658E+00
RMM:  19    -0.604436720370E+03   -0.24796E+02   -0.11647E+01  1072   0.474E+00    0.482E+00
RMM:  20    -0.620361654190E+03   -0.15925E+02   -0.87056E+00  1072   0.364E+00    0.434E+00
RMM:  21    -0.627875623169E+03   -0.75140E+01   -0.41879E+00  1072   0.232E+00    0.273E+00
RMM:  22    -0.633660125916E+03   -0.57845E+01   -0.34247E+00  1072   0.206E+00    0.151E+00
RMM:  23    -0.636049107502E+03   -0.23890E+01   -0.10450E+00  1072   0.110E+00    0.902E-01
RMM:  24    -0.637479608688E+03   -0.14305E+01   -0.44046E-01  1072   0.720E-01    0.611E-01
RMM:  25    -0.638011571339E+03   -0.53196E+00   -0.10315E-01  1073   0.344E-01    0.450E-01
RMM:  26    -0.638431836977E+03   -0.42027E+00   -0.50582E-02  1072   0.242E-01    0.324E-01
RMM:  27    -0.638735373806E+03   -0.30354E+00   -0.28626E-02  1072   0.177E-01    0.193E-01
RMM:  28    -0.638924590540E+03   -0.18922E+00   -0.16749E-02  1075   0.124E-01    0.120E-01
RMM:  29    -0.639010546888E+03   -0.85956E-01   -0.77038E-03  1073   0.802E-02    0.789E-02
RMM:  30    -0.639057465161E+03   -0.46918E-01   -0.54330E-03  1075   0.624E-02    0.430E-02
RMM:  31    -0.639073270536E+03   -0.15805E-01   -0.27720E-03   946   0.413E-02    0.300E-02
RMM:  32    -0.639076733960E+03   -0.34634E-02   -0.78352E-04   934   0.210E-02    0.230E-02
RMM:  33    -0.639078697866E+03   -0.19639E-02   -0.30466E-04   912   0.151E-02    0.129E-02
RMM:  34    -0.639080178094E+03   -0.14802E-02   -0.17151E-04   901   0.110E-02    0.640E-03
RMM:  35    -0.639081185539E+03   -0.10074E-02   -0.82536E-05   863   0.748E-03    0.377E-03
RMM:  36    -0.639081726873E+03   -0.54133E-03   -0.31099E-05   739   0.480E-03    0.240E-03
RMM:  37    -0.639081949445E+03   -0.22257E-03   -0.10140E-05   664   0.329E-03    0.151E-03
RMM:  38    -0.639082034122E+03   -0.84677E-04   -0.57310E-06   581   0.248E-03    0.147E-03
RMM:  39    -0.639082052368E+03   -0.18246E-04   -0.30494E-06   561   0.200E-03    0.113E-03
RMM:  40    -0.639082055019E+03   -0.26503E-05   -0.13718E-06   482   0.156E-03
   1 F= -.63907290E+03 E0= -.63892097E+03  d E =-.639073E+03  mag=     0.0007
       N       E                     dE             d eps       ncg     rms          rms(c)
RMM:   1    -0.639286686650E+03   -0.20463E+00   -0.87991E+01  1072   0.152E+01    0.254E+00
RMM:   2    -0.639047759837E+03    0.23893E+00   -0.19349E+00  1186   0.196E+00    0.238E+00
RMM:   3    -0.638946082416E+03    0.10168E+00   -0.21193E-01  1080   0.825E-01    0.176E+00
RMM:   4    -0.638912596568E+03    0.33486E-01   -0.10189E-01  1076   0.477E-01    0.124E+00
RMM:   5    -0.638891827280E+03    0.20769E-01   -0.52259E-02  1078   0.378E-01    0.634E-01
RMM:   6    -0.638886067483E+03    0.57598E-02   -0.16925E-02  1075   0.221E-01    0.337E-01
RMM:   7    -0.638885345741E+03    0.72174E-03   -0.57690E-03  1076   0.120E-01    0.297E-01
RMM:   8    -0.638884027982E+03    0.13178E-02   -0.22805E-03  1056   0.743E-02    0.926E-02
RMM:   9    -0.638883966618E+03    0.61364E-04   -0.30748E-04   975   0.301E-02    0.461E-02
RMM:  10    -0.638883969473E+03   -0.28549E-05   -0.10032E-04   909   0.171E-02    0.228E-02
RMM:  11    -0.638883990275E+03   -0.20801E-04   -0.43540E-05   821   0.104E-02    0.180E-02
RMM:  12    -0.638883996810E+03   -0.65355E-05   -0.13396E-05   734   0.655E-03
   2 F= -.63887456E+03 E0= -.63872445E+03  d E =0.198339E+00  mag=     0.0000
       N       E                     dE             d eps       ncg     rms          rms(c)
RMM:   1    -0.639323175910E+03   -0.43919E+00   -0.32186E+01  1072   0.933E+00    0.196E+00
RMM:   2    -0.639316108966E+03    0.70669E-02   -0.79451E-01  1152   0.118E+00    0.249E+00
RMM:   3    -0.639254591229E+03    0.61518E-01   -0.16659E-01  1096   0.650E-01    0.160E+00
RMM:   4    -0.639206797944E+03    0.47793E-01   -0.33844E-02  1072   0.296E-01    0.565E-01
RMM:   5    -0.639206471069E+03    0.32688E-03   -0.20126E-02  1072   0.225E-01    0.603E-01
RMM:   6    -0.639200879758E+03    0.55913E-02   -0.10218E-02  1076   0.162E-01    0.204E-01
RMM:   7    -0.639200556922E+03    0.32284E-03   -0.24583E-03  1069   0.789E-02    0.123E-01
RMM:   8    -0.639200303633E+03    0.25329E-03   -0.56408E-04  1007   0.380E-02    0.542E-02
RMM:   9    -0.639200282780E+03    0.20854E-04   -0.11774E-04   875   0.182E-02    0.410E-02
RMM:  10    -0.639200265440E+03    0.17339E-04   -0.65733E-05   840   0.132E-02    0.196E-02
RMM:  11    -0.639200270656E+03   -0.52161E-05   -0.31092E-05   810   0.928E-03
   3 F= -.63919104E+03 E0= -.63903995E+03  d E =-.118142E+00  mag=     0.0000
       N       E                     dE             d eps       ncg     rms          rms(c)
RMM:   1    -0.639282659014E+03   -0.82394E-01   -0.55977E+01  1072   0.123E+01    0.203E+00
RMM:   2    -0.639370313208E+03   -0.87654E-01   -0.17315E+00  1198   0.168E+00    0.191E+00
RMM:   3    -0.639298411693E+03    0.71902E-01   -0.15126E-01  1080   0.702E-01    0.121E+00
RMM:   4    -0.639280254670E+03    0.18157E-01   -0.30139E-02  1074   0.267E-01    0.816E-01
RMM:   5    -0.639274129279E+03    0.61254E-02   -0.25609E-02  1076   0.249E-01    0.652E-01
RMM:   6    -0.639270022103E+03    0.41072E-02   -0.15733E-02  1078   0.184E-01    0.388E-01
RMM:   7    -0.639268435803E+03    0.15863E-02   -0.61960E-03  1072   0.120E-01    0.169E-01
RMM:   8    -0.639267998556E+03    0.43725E-03   -0.12140E-03  1068   0.528E-02    0.616E-02
RMM:   9    -0.639267963465E+03    0.35092E-04   -0.19890E-04   902   0.221E-02    0.446E-02
RMM:  10    -0.639267937348E+03    0.26117E-04   -0.79720E-05   854   0.132E-02    0.219E-02
RMM:  11    -0.639267954307E+03   -0.16959E-04   -0.57399E-05   838   0.107E-02    0.174E-02
RMM:  12    -0.639267960012E+03   -0.57052E-05   -0.14877E-05   742   0.647E-03
   4 F= -.63925862E+03 E0= -.63910527E+03  d E =-.675813E-01  mag=     0.0000
       N       E                     dE             d eps       ncg     rms          rms(c)
RMM:   1    -0.639299924408E+03   -0.31970E-01   -0.73048E+00  1072   0.446E+00    0.643E-01
RMM:   2    -0.639305514938E+03   -0.55905E-02   -0.17516E-01  1202   0.518E-01    0.504E-01
RMM:   3    -0.639302770642E+03    0.27443E-02   -0.13551E-02  1080   0.208E-01    0.423E-01
RMM:   4    -0.639300242123E+03    0.25285E-02   -0.31311E-03  1070   0.963E-02    0.232E-01
RMM:   5    -0.639300288693E+03   -0.46570E-04   -0.25530E-03  1066   0.784E-02    0.245E-01
RMM:   6    -0.639299592726E+03    0.69597E-03   -0.17569E-03  1064   0.625E-02    0.109E-01
RMM:   7    -0.639299471519E+03    0.12121E-03   -0.52260E-04   990   0.350E-02    0.408E-02
RMM:   8    -0.639299453170E+03    0.18350E-04   -0.76274E-05   832   0.128E-02    0.263E-02
RMM:   9    -0.639299444716E+03    0.84538E-05   -0.20272E-05   764   0.770E-03
   5 F= -.63929014E+03 E0= -.63913775E+03  d E =-.991019E-01  mag=     0.0000
       N       E                     dE             d eps       ncg     rms          rms(c)
RMM:   1    -0.639344168952E+03   -0.44716E-01   -0.37039E+01  1072   0.101E+01    0.158E+00
RMM:   2    -0.639405257025E+03   -0.61088E-01   -0.11713E+00  1204   0.131E+00    0.134E+00
RMM:   3    -0.639374379016E+03    0.30878E-01   -0.85833E-02  1080   0.531E-01    0.954E-01
RMM:   4    -0.639363962452E+03    0.10417E-01   -0.14559E-02  1074   0.201E-01    0.583E-01
RMM:   5    -0.639361050141E+03    0.29123E-02   -0.90998E-03  1077   0.152E-01    0.432E-01
RMM:   6    -0.639359475713E+03    0.15744E-02   -0.84200E-03  1081   0.126E-01    0.277E-01
RMM:   7    -0.639358942712E+03    0.53300E-03   -0.45448E-03  1077   0.948E-02    0.143E-01
RMM:   8    -0.639358698031E+03    0.24468E-03   -0.95960E-04  1082   0.417E-02    0.624E-02
RMM:   9    -0.639358639409E+03    0.58622E-04   -0.10750E-04   874   0.165E-02    0.444E-02
RMM:  10    -0.639358602843E+03    0.36566E-04   -0.96826E-05   866   0.134E-02    0.246E-02
RMM:  11    -0.639358604591E+03   -0.17485E-05   -0.73028E-05   845   0.110E-02
   6 F= -.63934947E+03 E0= -.63920050E+03  d E =-.593274E-01  mag=     0.0000
       N       E                     dE             d eps       ncg     rms          rms(c)
RMM:   1    -0.639369267169E+03   -0.10664E-01   -0.32097E+00  1072   0.297E+00    0.393E-01
RMM:   2    -0.639372752520E+03   -0.34854E-02   -0.85919E-02  1208   0.347E-01    0.244E-01
RMM:   3    -0.639372044776E+03    0.70774E-03   -0.38411E-03  1091   0.116E-01    0.192E-01
RMM:   4    -0.639371599235E+03    0.44554E-03   -0.92184E-04  1056   0.523E-02    0.125E-01
RMM:   5    -0.639371617330E+03   -0.18095E-04   -0.98413E-04  1066   0.474E-02    0.122E-01
RMM:   6    -0.639371447818E+03    0.16951E-03   -0.59911E-04  1035   0.338E-02    0.557E-02
RMM:   7    -0.639371425248E+03    0.22571E-04   -0.12152E-04   862   0.155E-02    0.259E-02
RMM:   8    -0.639371418622E+03    0.66254E-05   -0.22069E-05   778   0.795E-03
   7 F= -.63936232E+03 E0= -.63921264E+03  d E =-.721738E-01  mag=     0.0000
       N       E                     dE             d eps       ncg     rms          rms(c)
RMM:   1    -0.639393237012E+03   -0.21812E-01   -0.30214E+01  1072   0.905E+00    0.134E+00
RMM:   2    -0.639455540120E+03   -0.62303E-01   -0.91455E-01  1206   0.115E+00    0.144E+00
RMM:   3    -0.639430727475E+03    0.24813E-01   -0.76811E-02  1104   0.498E-01    0.103E+00
RMM:   4    -0.639416609379E+03    0.14118E-01   -0.12064E-02  1076   0.190E-01    0.487E-01
RMM:   5    -0.639414319143E+03    0.22902E-02   -0.94353E-03  1076   0.142E-01    0.342E-01
RMM:   6    -0.639413477888E+03    0.84125E-03   -0.71920E-03  1076   0.114E-01    0.229E-01
RMM:   7    -0.639413011700E+03    0.46619E-03   -0.26794E-03  1086   0.711E-02    0.110E-01
RMM:   8    -0.639412847576E+03    0.16412E-03   -0.48153E-04   962   0.306E-02    0.503E-02
RMM:   9    -0.639412814812E+03    0.32763E-04   -0.86298E-05   850   0.143E-02    0.395E-02
RMM:  10    -0.639412793098E+03    0.21714E-04   -0.77716E-05   837   0.120E-02    0.177E-02
RMM:  11    -0.639412800109E+03   -0.70107E-05   -0.51013E-05   856   0.910E-03
   8 F= -.63940333E+03 E0= -.63924893E+03  d E =-.410094E-01  mag=     0.0000
       N       E                     dE             d eps       ncg     rms          rms(c)
RMM:   1    -0.639419284983E+03   -0.64919E-02   -0.26798E+00  1072   0.271E+00    0.355E-01
RMM:   2    -0.639423400635E+03   -0.41157E-02   -0.73765E-02  1212   0.313E-01    0.305E-01
RMM:   3    -0.639423066610E+03    0.33403E-03   -0.43088E-03  1114   0.119E-01    0.297E-01
RMM:   4    -0.639421840620E+03    0.12260E-02   -0.93638E-04  1062   0.540E-02    0.122E-01
RMM:   5    -0.639421830106E+03    0.10514E-04   -0.94683E-04  1060   0.453E-02    0.106E-01
RMM:   6    -0.639421700568E+03    0.12954E-03   -0.69511E-04  1067   0.353E-02    0.463E-02
RMM:   7    -0.639421679048E+03    0.21520E-04   -0.13103E-04   858   0.160E-02    0.203E-02
RMM:   8    -0.639421675118E+03    0.39305E-05   -0.16405E-05   752   0.703E-03
   9 F= -.63941228E+03 E0= -.63925936E+03  d E =-.499635E-01  mag=     0.0000
       N       E                     dE             d eps       ncg     rms          rms(c)
RMM:   1    -0.639436364445E+03   -0.14685E-01   -0.15479E+01  1072   0.656E+00    0.926E-01
RMM:   2    -0.639455140439E+03   -0.18776E-01   -0.44207E-01  1208   0.782E-01    0.583E-01
RMM:   3    -0.639448990371E+03    0.61501E-02   -0.15531E-02  1108   0.233E-01    0.449E-01
RMM:   4    -0.639448015148E+03    0.97522E-03   -0.51387E-03  1072   0.122E-01    0.397E-01
RMM:   5    -0.639446100910E+03    0.19142E-02   -0.46787E-03  1070   0.978E-02    0.186E-01
RMM:   6    -0.639446100113E+03    0.79611E-06   -0.32433E-03  1080   0.766E-02    0.144E-01
RMM:   7    -0.639445827353E+03    0.27276E-03   -0.79972E-04  1046   0.381E-02    0.511E-02
RMM:   8    -0.639445799731E+03    0.27622E-04   -0.10148E-04   874   0.154E-02    0.363E-02
RMM:   9    -0.639445775530E+03    0.24201E-04   -0.52350E-05   838   0.106E-02    0.221E-02
RMM:  10    -0.639445771822E+03    0.37085E-05   -0.42464E-05   822   0.894E-03
  10 F= -.63943632E+03 E0= -.63928235E+03  d E =-.240399E-01  mag=     0.0000
       N       E                     dE             d eps       ncg     rms          rms(c)
RMM:   1    -0.639450144059E+03   -0.43685E-02   -0.13928E+00  1072   0.197E+00    0.265E-01
RMM:   2    -0.639451668210E+03   -0.15242E-02   -0.38264E-02  1212   0.228E-01    0.156E-01
RMM:   3    -0.639451416095E+03    0.25212E-03   -0.12697E-03  1108   0.676E-02    0.127E-01
RMM:   4    -0.639451261022E+03    0.15507E-03   -0.42377E-04  1003   0.356E-02    0.923E-02
RMM:   5    -0.639451262667E+03   -0.16453E-05   -0.59399E-04  1068   0.341E-02    0.887E-02
RMM:   6    -0.639451157898E+03    0.10477E-03   -0.20101E-04   876   0.187E-02    0.237E-02
RMM:   7    -0.639451159587E+03   -0.16887E-05   -0.35002E-05   808   0.997E-03
  11 F= -.63944173E+03 E0= -.63928800E+03  d E =-.294447E-01  mag=     0.0000
       N       E                     dE             d eps       ncg     rms          rms(c)
RMM:   1    -0.639466162192E+03   -0.15004E-01   -0.82579E+00  1072   0.473E+00    0.602E-01
RMM:   2    -0.639480936115E+03   -0.14774E-01   -0.23589E-01  1216   0.568E-01    0.471E-01
RMM:   3    -0.639479456015E+03    0.14801E-02   -0.99111E-03  1127   0.180E-01    0.444E-01
RMM:   4    -0.639476870825E+03    0.25852E-02   -0.22790E-03  1066   0.854E-02    0.226E-01
RMM:   5    -0.639476738379E+03    0.13245E-03   -0.32857E-03  1070   0.797E-02    0.208E-01
RMM:   6    -0.639476253762E+03    0.48462E-03   -0.23040E-03  1090   0.614E-02    0.847E-02
RMM:   7    -0.639476217552E+03    0.36210E-04   -0.47851E-04  1012   0.301E-02    0.465E-02
RMM:   8    -0.639476184473E+03    0.33079E-04   -0.54760E-05   828   0.120E-02    0.297E-02
RMM:   9    -0.639476169198E+03    0.15274E-04   -0.38971E-05   816   0.929E-03    0.192E-02
RMM:  10    -0.639476165637E+03    0.35610E-05   -0.45098E-05   818   0.865E-03
  12 F= -.63946692E+03 E0= -.63931579E+03  d E =-.251960E-01  mag=     0.0000
       N       E                     dE             d eps       ncg     rms          rms(c)
RMM:   1    -0.639476238380E+03   -0.69182E-04   -0.26517E-02  1070   0.267E-01    0.325E-02
RMM:   2    -0.639476293816E+03   -0.55436E-04   -0.76534E-04  1184   0.328E-02    0.287E-02
RMM:   3    -0.639476288314E+03    0.55022E-05   -0.31831E-05   808   0.110E-02
  13 F= -.63946706E+03 E0= -.63931645E+03  d E =-.253337E-01  mag=     0.0000
       N       E                     dE             d eps       ncg     rms          rms(c)
RMM:   1    -0.639487475665E+03   -0.11182E-01   -0.68257E+00  1072   0.422E+00    0.557E-01
RMM:   2    -0.639499502371E+03   -0.12027E-01   -0.20207E-01  1220   0.528E-01    0.420E-01
RMM:   3    -0.639497906667E+03    0.15957E-02   -0.99877E-03  1142   0.189E-01    0.368E-01
RMM:   4    -0.639496390436E+03    0.15162E-02   -0.19296E-03  1064   0.756E-02    0.223E-01
RMM:   5    -0.639496078472E+03    0.31196E-03   -0.19752E-03  1066   0.667E-02    0.178E-01
RMM:   6    -0.639495859804E+03    0.21867E-03   -0.21815E-03  1088   0.612E-02    0.115E-01
RMM:   7    -0.639495705204E+03    0.15460E-03   -0.53184E-04   988   0.315E-02    0.380E-02
RMM:   8    -0.639495699273E+03    0.59310E-05   -0.63796E-05   836   0.131E-02
  14 F= -.63948641E+03 E0= -.63933451E+03  d E =-.193510E-01  mag=     0.0000
       N       E                     dE             d eps       ncg     rms          rms(c)
RMM:   1    -0.639495697566E+03    0.76376E-05   -0.56043E-02  1072   0.382E-01    0.605E-02
RMM:   2    -0.639495801605E+03   -0.10404E-03   -0.19646E-03  1218   0.505E-02    0.332E-02
RMM:   3    -0.639495799424E+03    0.21812E-05   -0.73253E-05   886   0.163E-02
  15 F= -.63948650E+03 E0= -.63933399E+03  d E =-.194426E-01  mag=     0.0000
       N       E                     dE             d eps       ncg     rms          rms(c)
RMM:   1    -0.639502779528E+03   -0.69779E-02   -0.49117E+00  1072   0.355E+00    0.453E-01
RMM:   2    -0.639513645060E+03   -0.10866E-01   -0.15552E-01  1220   0.447E-01    0.374E-01
RMM:   3    -0.639512321970E+03    0.13231E-02   -0.80067E-03  1164   0.165E-01    0.297E-01
RMM:   4    -0.639511203088E+03    0.11189E-02   -0.11146E-03  1054   0.581E-02    0.172E-01
RMM:   5    -0.639510999177E+03    0.20391E-03   -0.14114E-03  1072   0.528E-02    0.127E-01
RMM:   6    -0.639510827899E+03    0.17128E-03   -0.16539E-03  1088   0.497E-02    0.394E-02
RMM:   7    -0.639510828953E+03   -0.10543E-05   -0.19012E-04   952   0.205E-02    0.321E-02
RMM:   8    -0.639510811777E+03    0.17177E-04   -0.27502E-05   808   0.879E-03    0.242E-02
RMM:   9    -0.639510805031E+03    0.67458E-05   -0.21153E-05   766   0.678E-03
  16 F= -.63950147E+03 E0= -.63934893E+03  d E =-.149686E-01  mag=     0.0000
       N       E                     dE             d eps       ncg     rms          rms(c)
RMM:   1    -0.639510986998E+03   -0.17522E-03   -0.66749E-01  1072   0.131E+00    0.167E-01
RMM:   2    -0.639512492136E+03   -0.15051E-02   -0.21650E-02  1220   0.165E-01    0.127E-01
RMM:   3    -0.639512342428E+03    0.14971E-03   -0.94764E-04  1125   0.573E-02    0.104E-01
RMM:   4    -0.639512211510E+03    0.13092E-03   -0.13865E-04   862   0.205E-02    0.633E-02
RMM:   5    -0.639512194519E+03    0.16991E-04   -0.19173E-04   918   0.198E-02    0.523E-02
RMM:   6    -0.639512181576E+03    0.12943E-04   -0.24545E-04   976   0.193E-02    0.297E-02
RMM:   7    -0.639512174817E+03    0.67594E-05   -0.35170E-05   806   0.951E-03
  17 F= -.63950282E+03 E0= -.63935045E+03  d E =-.163178E-01  mag=     0.0000
       N       E                     dE             d eps       ncg     rms          rms(c)
RMM:   1    -0.639518955004E+03   -0.67734E-02   -0.36600E+00  1072   0.304E+00    0.419E-01
RMM:   2    -0.639526895403E+03   -0.79404E-02   -0.12071E-01  1220   0.389E-01    0.349E-01
RMM:   3    -0.639526093802E+03    0.80160E-03   -0.70616E-03  1146   0.150E-01    0.297E-01
RMM:   4    -0.639524843703E+03    0.12501E-02   -0.97304E-04  1046   0.561E-02    0.144E-01
RMM:   5    -0.639524786722E+03    0.56981E-04   -0.12307E-03  1060   0.489E-02    0.126E-01
RMM:   6    -0.639524658686E+03    0.12804E-03   -0.12946E-03  1100   0.430E-02    0.710E-02
RMM:   7    -0.639524615179E+03    0.43507E-04   -0.19864E-04   896   0.205E-02    0.349E-02
RMM:   8    -0.639524597652E+03    0.17527E-04   -0.19807E-05   774   0.777E-03    0.217E-02
RMM:   9    -0.639524589007E+03    0.86452E-05   -0.29837E-05   792   0.764E-03
  18 F= -.63951527E+03 E0= -.63936265E+03  d E =-.124547E-01  mag=     0.0000
       N       E                     dE             d eps       ncg     rms          rms(c)
RMM:   1    -0.639524871114E+03   -0.27346E-03   -0.49611E-01  1072   0.112E+00    0.151E-01
RMM:   2    -0.639525974026E+03   -0.11029E-02   -0.16436E-02  1218   0.143E-01    0.123E-01
RMM:   3    -0.639525878657E+03    0.95369E-04   -0.85247E-04  1090   0.527E-02    0.109E-01
RMM:   4    -0.639525720773E+03    0.15788E-03   -0.12249E-04   862   0.200E-02    0.557E-02
RMM:   5    -0.639525724421E+03   -0.36481E-05   -0.16722E-04   888   0.186E-02    0.543E-02
RMM:   6    -0.639525705367E+03    0.19053E-04   -0.21070E-04   954   0.181E-02    0.292E-02
RMM:   7    -0.639525697267E+03    0.81003E-05   -0.35103E-05   812   0.905E-03
  19 F= -.63951640E+03 E0= -.63936381E+03  d E =-.135793E-01  mag=     0.0000
       N       E                     dE             d eps       ncg     rms          rms(c)
RMM:   1    -0.639531049802E+03   -0.53444E-02   -0.17511E+00  1072   0.211E+00    0.269E-01
RMM:   2    -0.639535324368E+03   -0.42746E-02   -0.58169E-02  1214   0.269E-01    0.221E-01
RMM:   3    -0.639534993045E+03    0.33132E-03   -0.29249E-03  1154   0.963E-02    0.186E-01
RMM:   4    -0.639534526068E+03    0.46698E-03   -0.39008E-04   942   0.345E-02    0.993E-02
RMM:   5    -0.639534492368E+03    0.33700E-04   -0.59914E-04  1030   0.336E-02    0.838E-02
RMM:   6    -0.639534425114E+03    0.67254E-04   -0.62569E-04  1063   0.297E-02    0.385E-02
RMM:   7    -0.639534419588E+03    0.55256E-05   -0.78607E-05   864   0.132E-02
  20 F= -.63952514E+03 E0= -.63937207E+03  d E =-.874601E-02  mag=     0.0000
       N       E                     dE             d eps       ncg     rms          rms(c)
RMM:   1    -0.639531762713E+03    0.26624E-02   -0.37474E+00  1072   0.308E+00    0.399E-01
RMM:   2    -0.639541188312E+03   -0.94256E-02   -0.12599E-01  1218   0.397E-01    0.351E-01
RMM:   3    -0.639540295795E+03    0.89252E-03   -0.70697E-03  1156   0.148E-01    0.285E-01
RMM:   4    -0.639539201556E+03    0.10942E-02   -0.87461E-04  1040   0.521E-02    0.147E-01
RMM:   5    -0.639539137210E+03    0.64346E-04   -0.11069E-03  1060   0.459E-02    0.134E-01
RMM:   6    -0.639538987041E+03    0.15017E-03   -0.13632E-03  1100   0.444E-02    0.760E-02
RMM:   7    -0.639538940513E+03    0.46528E-04   -0.25662E-04   930   0.220E-02    0.344E-02
RMM:   8    -0.639538922845E+03    0.17668E-04   -0.20692E-05   784   0.784E-03    0.215E-02
RMM:   9    -0.639538914575E+03    0.82704E-05   -0.40666E-05   808   0.812E-03
  21 F= -.63952965E+03 E0= -.63937657E+03  d E =-.132502E-01  mag=     0.0000
       N       E                     dE             d eps       ncg     rms          rms(c)
RMM:   1    -0.639542737448E+03   -0.38146E-02   -0.11466E+00  1072   0.170E+00    0.214E-01
RMM:   2    -0.639545678660E+03   -0.29412E-02   -0.38462E-02  1218   0.218E-01    0.192E-01
RMM:   3    -0.639545423664E+03    0.25500E-03   -0.20125E-03  1146   0.795E-02    0.159E-01
RMM:   4    -0.639545090220E+03    0.33344E-03   -0.25564E-04   902   0.282E-02    0.837E-02
RMM:   5    -0.639545080571E+03    0.96495E-05   -0.39193E-04   953   0.269E-02    0.831E-02
RMM:   6    -0.639545016275E+03    0.64295E-04   -0.45574E-04  1016   0.256E-02    0.393E-02
RMM:   7    -0.639545006478E+03    0.97977E-05   -0.77923E-05   866   0.128E-02
  22 F= -.63953576E+03 E0= -.63938282E+03  d E =-.611471E-02  mag=     0.0000
       N       E                     dE             d eps       ncg     rms          rms(c)
RMM:   1    -0.639540134978E+03    0.48813E-02   -0.45355E+00  1072   0.338E+00    0.440E-01
RMM:   2    -0.639552205495E+03   -0.12071E-01   -0.15405E-01  1218   0.442E-01    0.442E-01
RMM:   3    -0.639550566026E+03    0.16395E-02   -0.97588E-03  1158   0.172E-01    0.327E-01
RMM:   4    -0.639549164021E+03    0.14020E-02   -0.10538E-03  1056   0.575E-02    0.167E-01
RMM:   5    -0.639549104572E+03    0.59449E-04   -0.11780E-03  1048   0.474E-02    0.167E-01
RMM:   6    -0.639548839371E+03    0.26520E-03   -0.17612E-03  1100   0.508E-02    0.812E-02
RMM:   7    -0.639548789274E+03    0.50096E-04   -0.41894E-04   978   0.266E-02    0.354E-02
RMM:   8    -0.639548768079E+03    0.21196E-04   -0.26891E-05   802   0.908E-03    0.233E-02
RMM:   9    -0.639548758085E+03    0.99934E-05   -0.36817E-05   812   0.832E-03
  23 F= -.63953955E+03 E0= -.63938718E+03  d E =-.990139E-02  mag=     0.0000
       N       E                     dE             d eps       ncg     rms          rms(c)
RMM:   1    -0.639550483198E+03   -0.17151E-02   -0.20480E+00  1072   0.224E+00    0.285E-01
RMM:   2    -0.639556373342E+03   -0.58901E-02   -0.71620E-02  1224   0.297E-01    0.297E-01
RMM:   3    -0.639555598063E+03    0.77528E-03   -0.41739E-03  1155   0.113E-01    0.218E-01
RMM:   4    -0.639554992188E+03    0.60588E-03   -0.43773E-04   950   0.367E-02    0.115E-01
RMM:   5    -0.639554937822E+03    0.54366E-04   -0.45461E-04   946   0.294E-02    0.108E-01
RMM:   6    -0.639554838824E+03    0.98998E-04   -0.98559E-04  1076   0.372E-02    0.577E-02
RMM:   7    -0.639554814790E+03    0.24033E-04   -0.21837E-04   950   0.189E-02    0.262E-02
RMM:   8    -0.639554803290E+03    0.11500E-04   -0.13303E-05   714   0.700E-03    0.186E-02
RMM:   9    -0.639554797487E+03    0.58035E-05   -0.17118E-05   727   0.622E-03
  24 F= -.63954561E+03 E0= -.63939310E+03  d E =-.605677E-02  mag=     0.0000
       N       E                     dE             d eps       ncg     rms          rms(c)
RMM:   1    -0.639554769096E+03    0.34194E-04   -0.11720E+00  1072   0.169E+00    0.215E-01
RMM:   2    -0.639558071761E+03   -0.33027E-02   -0.40954E-02  1224   0.224E-01    0.212E-01
RMM:   3    -0.639557715248E+03    0.35651E-03   -0.22523E-03  1142   0.830E-02    0.165E-01
RMM:   4    -0.639557365760E+03    0.34949E-03   -0.25133E-04   896   0.280E-02    0.862E-02
RMM:   5    -0.639557339970E+03    0.25789E-04   -0.28490E-04   904   0.233E-02    0.812E-02
RMM:   6    -0.639557286009E+03    0.53961E-04   -0.54885E-04  1042   0.280E-02    0.430E-02
RMM:   7    -0.639557273381E+03    0.12628E-04   -0.11412E-04   917   0.142E-02    0.197E-02
RMM:   8    -0.639557266699E+03    0.66829E-05   -0.73631E-06   662   0.543E-03
  25 F= -.63954808E+03 E0= -.63939550E+03  d E =-.853391E-02  mag=     0.0000
       N       E                     dE             d eps       ncg     rms          rms(c)
RMM:   1    -0.639547285568E+03    0.99878E-02   -0.46833E+00  1072   0.338E+00    0.443E-01
RMM:   2    -0.639561392924E+03   -0.14107E-01   -0.16587E-01  1224   0.457E-01    0.510E-01
RMM:   3    -0.639558707446E+03    0.26855E-02   -0.11075E-02  1161   0.181E-01    0.326E-01
RMM:   4    -0.639557361093E+03    0.13464E-02   -0.10182E-03  1059   0.557E-02    0.175E-01
RMM:   5    -0.639557210041E+03    0.15105E-03   -0.87714E-04  1014   0.411E-02    0.160E-01
RMM:   6    -0.639556993459E+03    0.21658E-03   -0.20646E-03  1102   0.544E-02    0.917E-02
RMM:   7    -0.639556927148E+03    0.66311E-04   -0.59789E-04  1018   0.299E-02    0.390E-02
RMM:   8    -0.639556901517E+03    0.25631E-04   -0.30366E-05   814   0.994E-03    0.274E-02
RMM:   9    -0.639556887106E+03    0.14410E-04   -0.32757E-05   797   0.811E-03    0.154E-02
RMM:  10    -0.639556885941E+03    0.11656E-05   -0.42982E-05   800   0.783E-03
  26 F= -.63954771E+03 E0= -.63939493E+03  d E =-.816333E-02  mag=     0.0000
       N       E                     dE             d eps       ncg     rms          rms(c)
RMM:   1    -0.639554718638E+03    0.21685E-02   -0.15780E+00  1072   0.197E+00    0.243E-01
RMM:   2    -0.639558570679E+03   -0.38520E-02   -0.53207E-02  1224   0.253E-01    0.168E-01
RMM:   3    -0.639558303864E+03    0.26682E-03   -0.14254E-03  1144   0.707E-02    0.143E-01
RMM:   4    -0.639558080719E+03    0.22315E-03   -0.25637E-04   890   0.266E-02    0.943E-02
RMM:   5    -0.639558015589E+03    0.65130E-04   -0.67740E-04  1046   0.332E-02    0.659E-02
RMM:   6    -0.639557985465E+03    0.30124E-04   -0.41991E-04   962   0.238E-02    0.332E-02
RMM:   7    -0.639557982004E+03    0.34611E-05   -0.55796E-05   850   0.115E-02
  27 F= -.63954880E+03 E0= -.63939596E+03  d E =-.925344E-02  mag=     0.0000
       N       E                     dE             d eps       ncg     rms          rms(c)
RMM:   1    -0.639561816735E+03   -0.38313E-02   -0.23322E+00  1072   0.243E+00    0.312E-01
RMM:   2    -0.639567584647E+03   -0.57679E-02   -0.77788E-02  1222   0.319E-01    0.298E-01
RMM:   3    -0.639566807979E+03    0.77667E-03   -0.45076E-03  1141   0.119E-01    0.230E-01
RMM:   4    -0.639566101026E+03    0.70695E-03   -0.60015E-04  1021   0.432E-02    0.124E-01
RMM:   5    -0.639566022119E+03    0.78906E-04   -0.88087E-04  1052   0.411E-02    0.109E-01
RMM:   6    -0.639565917443E+03    0.10468E-03   -0.93903E-04  1094   0.373E-02    0.651E-02
RMM:   7    -0.639565880818E+03    0.36626E-04   -0.16889E-04   900   0.184E-02    0.278E-02
RMM:   8    -0.639565869217E+03    0.11600E-04   -0.14488E-05   732   0.725E-03    0.189E-02
RMM:   9    -0.639565862062E+03    0.71555E-05   -0.16913E-05   718   0.649E-03
  28 F= -.63955673E+03 E0= -.63940438E+03  d E =-.793088E-02  mag=     0.0000
       N       E                     dE             d eps       ncg     rms          rms(c)
RMM:   1    -0.639566106666E+03   -0.23745E-03   -0.33316E-01  1072   0.917E-01    0.120E-01
RMM:   2    -0.639566930287E+03   -0.82362E-03   -0.11490E-02  1222   0.121E-01    0.988E-02
RMM:   3    -0.639566855240E+03    0.75047E-04   -0.52969E-04  1058   0.414E-02    0.845E-02
RMM:   4    -0.639566761065E+03    0.94175E-04   -0.84833E-05   844   0.166E-02    0.461E-02
RMM:   5    -0.639566749473E+03    0.11593E-04   -0.16024E-04   910   0.176E-02    0.336E-02
RMM:   6    -0.639566737897E+03    0.11576E-04   -0.11809E-04   889   0.137E-02    0.101E-02
RMM:   7    -0.639566737388E+03    0.50860E-06   -0.80068E-06   652   0.610E-03
  29 F= -.63955764E+03 E0= -.63940546E+03  d E =-.883423E-02  mag=     0.0000
       N       E                     dE             d eps       ncg     rms          rms(c)
RMM:   1    -0.639570583936E+03   -0.38460E-02   -0.15737E+00  1072   0.201E+00    0.258E-01
RMM:   2    -0.639575092106E+03   -0.45082E-02   -0.54472E-02  1228   0.267E-01    0.281E-01
RMM:   3    -0.639574453133E+03    0.63897E-03   -0.33530E-03  1150   0.102E-01    0.208E-01
RMM:   4    -0.639573909615E+03    0.54352E-03   -0.36296E-04   974   0.342E-02    0.101E-01
RMM:   5    -0.639573905602E+03    0.40137E-05   -0.47418E-04   950   0.297E-02    0.107E-01
RMM:   6    -0.639573772302E+03    0.13330E-03   -0.73346E-04  1060   0.326E-02    0.307E-02
RMM:   7    -0.639573780372E+03   -0.80692E-05   -0.10983E-04   921   0.147E-02    0.227E-02
RMM:   8    -0.639573770131E+03    0.10240E-04   -0.90324E-06   681   0.581E-03    0.154E-02
RMM:   9    -0.639573765965E+03    0.41666E-05   -0.17298E-05   711   0.593E-03
  30 F= -.63956466E+03 E0= -.63941246E+03  d E =-.702574E-02  mag=     0.0000
       N       E                     dE             d eps       ncg     rms          rms(c)
RMM:   1    -0.639572368488E+03    0.14016E-02   -0.24740E+00  1072   0.252E+00    0.319E-01
RMM:   2    -0.639579676683E+03   -0.73082E-02   -0.85805E-02  1228   0.337E-01    0.368E-01
RMM:   3    -0.639578402593E+03    0.12741E-02   -0.53678E-03  1156   0.129E-01    0.250E-01
RMM:   4    -0.639577629243E+03    0.77335E-03   -0.54373E-04  1032   0.414E-02    0.130E-01
RMM:   5    -0.639577605481E+03    0.23762E-04   -0.71361E-04   999   0.363E-02    0.136E-01
RMM:   6    -0.639577388786E+03    0.21670E-03   -0.12301E-03  1080   0.419E-02    0.416E-02
RMM:   7    -0.639577398552E+03   -0.97666E-05   -0.20108E-04   964   0.191E-02    0.293E-02
RMM:   8    -0.639577381331E+03    0.17222E-04   -0.15653E-05   748   0.717E-03    0.195E-02
RMM:   9    -0.639577374205E+03    0.71261E-05   -0.31479E-05   770   0.736E-03
  31 F= -.63956826E+03 E0= -.63941615E+03  d E =-.106184E-01  mag=     0.0000
       N       E                     dE             d eps       ncg     rms          rms(c)
RMM:   1    -0.639578672101E+03   -0.12908E-02   -0.24591E+00  1072   0.249E+00    0.317E-01
RMM:   2    -0.639586665503E+03   -0.79934E-02   -0.88388E-02  1228   0.340E-01    0.402E-01
RMM:   3    -0.639584936338E+03    0.17292E-02   -0.57215E-03  1164   0.134E-01    0.239E-01
RMM:   4    -0.639584233712E+03    0.70263E-03   -0.50933E-04  1022   0.394E-02    0.132E-01
RMM:   5    -0.639584188874E+03    0.44838E-04   -0.60435E-04   969   0.338E-02    0.134E-01
RMM:   6    -0.639583974130E+03    0.21474E-03   -0.13474E-03  1076   0.437E-02    0.359E-02
RMM:   7    -0.639583991498E+03   -0.17369E-04   -0.21886E-04   984   0.191E-02    0.297E-02
RMM:   8    -0.639583974088E+03    0.17410E-04   -0.15512E-05   752   0.732E-03    0.205E-02
RMM:   9    -0.639583966513E+03    0.75748E-05   -0.28032E-05   775   0.706E-03
  32 F= -.63957484E+03 E0= -.63942300E+03  d E =-.658744E-02  mag=     0.0000
       N       E                     dE             d eps       ncg     rms          rms(c)
RMM:   1    -0.639583931863E+03    0.42225E-04   -0.71385E-01  1072   0.134E+00    0.168E-01
RMM:   2    -0.639586135573E+03   -0.22037E-02   -0.25560E-02  1230   0.181E-01    0.190E-01
RMM:   3    -0.639585818715E+03    0.31686E-03   -0.14373E-03  1135   0.677E-02    0.135E-01
RMM:   4    -0.639585592325E+03    0.22639E-03   -0.15184E-04   874   0.221E-02    0.705E-02
RMM:   5    -0.639585587449E+03    0.48761E-05   -0.22164E-04   884   0.205E-02    0.743E-02
RMM:   6    -0.639585523880E+03    0.63569E-04   -0.40112E-04   998   0.239E-02    0.169E-02
RMM:   7    -0.639585530968E+03   -0.70873E-05   -0.46228E-05   846   0.102E-02
  33 F= -.63957642E+03 E0= -.63942462E+03  d E =-.816004E-02  mag=     0.0000
       N       E                     dE             d eps       ncg     rms          rms(c)
RMM:   1    -0.639587136813E+03   -0.16129E-02   -0.23796E+00  1072   0.244E+00    0.321E-01
RMM:   2    -0.639594022989E+03   -0.68862E-02   -0.86488E-02  1222   0.332E-01    0.327E-01
RMM:   3    -0.639593161111E+03    0.86188E-03   -0.50426E-03  1160   0.126E-01    0.250E-01
RMM:   4    -0.639592356821E+03    0.80429E-03   -0.59468E-04  1034   0.437E-02    0.126E-01
RMM:   5    -0.639592341819E+03    0.15003E-04   -0.70612E-04  1042   0.361E-02    0.134E-01
RMM:   6    -0.639592138041E+03    0.20378E-03   -0.11374E-03  1082   0.406E-02    0.380E-02
RMM:   7    -0.639592150216E+03   -0.12175E-04   -0.18070E-04   958   0.179E-02    0.284E-02
RMM:   8    -0.639592134413E+03    0.15803E-04   -0.15068E-05   744   0.713E-03    0.191E-02
RMM:   9    -0.639592128290E+03    0.61230E-05   -0.24682E-05   772   0.683E-03
  34 F= -.63958305E+03 E0= -.63943183E+03  d E =-.663578E-02  mag=     0.0000
       N       E                     dE             d eps       ncg     rms          rms(c)
RMM:   1    -0.639591908116E+03    0.22630E-03   -0.65430E-01  1072   0.128E+00    0.162E-01
RMM:   2    -0.639593754218E+03   -0.18461E-02   -0.23596E-02  1222   0.172E-01    0.149E-01
RMM:   3    -0.639593602208E+03    0.15201E-03   -0.11085E-03  1136   0.598E-02    0.128E-01
RMM:   4    -0.639593397880E+03    0.20433E-03   -0.15728E-04   872   0.224E-02    0.671E-02
RMM:   5    -0.639593397139E+03    0.74115E-06   -0.27188E-04   936   0.220E-02    0.715E-02
RMM:   6    -0.639593341582E+03    0.55557E-04   -0.30593E-04   970   0.212E-02    0.207E-02
RMM:   7    -0.639593345559E+03   -0.39772E-05   -0.39227E-05   828   0.962E-03
  35 F= -.63958431E+03 E0= -.63943325E+03  d E =-.789074E-02  mag=     0.0000
       N       E                     dE             d eps       ncg     rms          rms(c)
RMM:   1    -0.639594016255E+03   -0.67467E-03   -0.21838E+00  1072   0.229E+00    0.296E-01
RMM:   2    -0.639600871574E+03   -0.68553E-02   -0.81438E-02  1232   0.316E-01    0.314E-01
RMM:   3    -0.639600036240E+03    0.83533E-03   -0.42829E-03  1154   0.116E-01    0.233E-01
RMM:   4    -0.639599366740E+03    0.66950E-03   -0.48804E-04   980   0.391E-02    0.123E-01
RMM:   5    -0.639599314990E+03    0.51750E-04   -0.51651E-04   940   0.303E-02    0.119E-01
RMM:   6    -0.639599160431E+03    0.15456E-03   -0.11327E-03  1064   0.394E-02    0.383E-02
RMM:   7    -0.639599173576E+03   -0.13145E-04   -0.20845E-04   984   0.183E-02    0.288E-02
RMM:   8    -0.639599157281E+03    0.16295E-04   -0.14412E-05   738   0.693E-03    0.199E-02
RMM:   9    -0.639599150097E+03    0.71838E-05   -0.27711E-05   760   0.687E-03
  36 F= -.63959015E+03 E0= -.63943935E+03  d E =-.583863E-02  mag=     0.0000
       N       E                     dE             d eps       ncg     rms          rms(c)
RMM:   1    -0.639595294831E+03    0.38624E-02   -0.33275E+00  1072   0.282E+00    0.359E-01
RMM:   2    -0.639606173303E+03   -0.10878E-01   -0.12409E-01  1232   0.393E-01    0.423E-01
RMM:   3    -0.639604326751E+03    0.18466E-02   -0.69032E-03  1156   0.147E-01    0.275E-01
RMM:   4    -0.639603421729E+03    0.90502E-03   -0.69309E-04  1036   0.462E-02    0.157E-01
RMM:   5    -0.639603316697E+03    0.10503E-03   -0.71120E-04   970   0.356E-02    0.150E-01
RMM:   6    -0.639603060923E+03    0.25577E-03   -0.18360E-03  1072   0.502E-02    0.509E-02
RMM:   7    -0.639603079824E+03   -0.18901E-04   -0.39474E-04  1018   0.241E-02    0.364E-02
RMM:   8    -0.639603053820E+03    0.26004E-04   -0.23093E-05   784   0.870E-03    0.254E-02
RMM:   9    -0.639603041551E+03    0.12269E-04   -0.40193E-05   790   0.816E-03    0.126E-02
RMM:  10    -0.639603043169E+03   -0.16182E-05   -0.41622E-05   806   0.749E-03
  37 F= -.63959408E+03 E0= -.63944362E+03  d E =-.977636E-02  mag=     0.0000
       N       E                     dE             d eps       ncg     rms          rms(c)
RMM:   1    -0.639604502866E+03   -0.14613E-02   -0.30255E+00  1072   0.270E+00    0.347E-01
RMM:   2    -0.639614611428E+03   -0.10109E-01   -0.11173E-01  1226   0.376E-01    0.441E-01
RMM:   3    -0.639612422220E+03    0.21892E-02   -0.68705E-03  1156   0.145E-01    0.256E-01
RMM:   4    -0.639611639748E+03    0.78247E-03   -0.63662E-04  1040   0.436E-02    0.152E-01
RMM:   5    -0.639611531084E+03    0.10866E-03   -0.60193E-04   960   0.333E-02    0.142E-01
RMM:   6    -0.639611300303E+03    0.23078E-03   -0.16156E-03  1078   0.480E-02    0.555E-02
RMM:   7    -0.639611304888E+03   -0.45856E-05   -0.39060E-04  1014   0.238E-02    0.333E-02
RMM:   8    -0.639611285463E+03    0.19425E-04   -0.20989E-05   766   0.877E-03    0.243E-02
RMM:   9    -0.639611274228E+03    0.11236E-04   -0.30162E-05   767   0.757E-03    0.129E-02
RMM:  10    -0.639611275146E+03   -0.91825E-06   -0.36910E-05   785   0.719E-03
  38 F= -.63960235E+03 E0= -.63945234E+03  d E =-.827086E-02  mag=     0.0000
       N       E                     dE             d eps       ncg     rms          rms(c)
RMM:   1    -0.639610517066E+03    0.75716E-03   -0.21383E+00  1072   0.227E+00    0.289E-01
RMM:   2    -0.639617476326E+03   -0.69593E-02   -0.78539E-02  1228   0.314E-01    0.348E-01
RMM:   3    -0.639616198912E+03    0.12774E-02   -0.45524E-03  1150   0.118E-01    0.220E-01
RMM:   4    -0.639615616463E+03    0.58245E-03   -0.44837E-04   984   0.369E-02    0.126E-01
RMM:   5    -0.639615547531E+03    0.68932E-04   -0.46403E-04   934   0.292E-02    0.120E-01
RMM:   6    -0.639615383283E+03    0.16425E-03   -0.11676E-03  1062   0.408E-02    0.444E-02
RMM:   7    -0.639615390399E+03   -0.71161E-05   -0.25312E-04   986   0.197E-02    0.282E-02
RMM:   8    -0.639615376357E+03    0.14042E-04   -0.14796E-05   739   0.746E-03    0.205E-02
RMM:   9    -0.639615368815E+03    0.75421E-05   -0.23006E-05   742   0.666E-03
  39 F= -.63960648E+03 E0= -.63945679E+03  d E =-.124009E-01  mag=     0.0000
       N       E                     dE             d eps       ncg     rms          rms(c)
RMM:   1    -0.639597975551E+03    0.17401E-01   -0.85585E+00  1072   0.455E+00    0.613E-01
RMM:   2    -0.639630256653E+03   -0.32281E-01   -0.32796E-01  1226   0.665E-01    0.907E-01
RMM:   3    -0.639618571290E+03    0.11685E-01   -0.24461E-02  1158   0.265E-01    0.376E-01
RMM:   4    -0.639616992908E+03    0.15784E-02   -0.19811E-03  1068   0.703E-02    0.263E-01
RMM:   5    -0.639616591345E+03    0.40156E-03   -0.13819E-03  1044   0.505E-02    0.234E-01
RMM:   6    -0.639615993080E+03    0.59827E-03   -0.38460E-03  1088   0.752E-02    0.119E-01
RMM:   7    -0.639615919620E+03    0.73460E-04   -0.15265E-03  1122   0.465E-02    0.539E-02
RMM:   8    -0.639615874790E+03    0.44830E-04   -0.76788E-05   860   0.156E-02    0.405E-02
RMM:   9    -0.639615839953E+03    0.34838E-04   -0.61403E-05   830   0.108E-02    0.228E-02
RMM:  10    -0.639615836964E+03    0.29883E-05   -0.91583E-05   884   0.108E-02
  40 F= -.63960701E+03 E0= -.63945815E+03  d E =-.129226E-01  mag=     0.0000
       N       E                     dE             d eps       ncg     rms          rms(c)
RMM:   1    -0.639626320498E+03   -0.10481E-01   -0.22947E+00  1074   0.270E+00    0.583E-01
RMM:   2    -0.639617789903E+03    0.85306E-02   -0.35762E-02  1144   0.309E-01    0.384E-01
RMM:   3    -0.639618205412E+03   -0.41551E-03   -0.11024E-02  1078   0.180E-01    0.494E-01
RMM:   4    -0.639614800680E+03    0.34047E-02   -0.43388E-03  1070   0.115E-01    0.207E-01
RMM:   5    -0.639614281655E+03    0.51903E-03   -0.15585E-03  1074   0.722E-02    0.930E-02
RMM:   6    -0.639614163163E+03    0.11849E-03   -0.30238E-04  1064   0.323E-02    0.510E-02
RMM:   7    -0.639614135663E+03    0.27500E-04   -0.10244E-04   898   0.189E-02    0.319E-02
RMM:   8    -0.639614127783E+03    0.78799E-05   -0.32091E-05   788   0.109E-02
  41 F= -.63960538E+03 E0= -.63945621E+03  d E =0.162928E-02  mag=     0.0000
       N       E                     dE             d eps       ncg     rms          rms(c)
RMM:   1    -0.639629654839E+03   -0.15519E-01   -0.61770E-01  1074   0.140E+00    0.299E-01
RMM:   2    -0.639627364482E+03    0.22904E-02   -0.93446E-03  1144   0.159E-01    0.190E-01
RMM:   3    -0.639627478014E+03   -0.11353E-03   -0.29343E-03  1076   0.935E-02    0.252E-01
RMM:   4    -0.639626636103E+03    0.84191E-03   -0.11559E-03  1070   0.589E-02    0.112E-01
RMM:   5    -0.639626491802E+03    0.14430E-03   -0.40614E-04  1056   0.368E-02    0.505E-02
RMM:   6    -0.639626473163E+03    0.18638E-04   -0.97220E-05   944   0.179E-02    0.407E-02
RMM:   7    -0.639626450931E+03    0.22233E-04   -0.40230E-05   798   0.122E-02    0.149E-02
RMM:   8    -0.639626450702E+03    0.22860E-06   -0.85047E-06   680   0.659E-03
  42 F= -.63961768E+03 E0= -.63946866E+03  d E =-.106715E-01  mag=     0.0000
       N       E                     dE             d eps       ncg     rms          rms(c)
RMM:   1    -0.639630367178E+03   -0.39162E-02   -0.34799E-01  1072   0.101E+00    0.155E-01
RMM:   2    -0.639630779605E+03   -0.41243E-03   -0.10431E-02  1204   0.122E-01    0.139E-01
RMM:   3    -0.639630663084E+03    0.11652E-03   -0.92980E-04  1082   0.549E-02    0.126E-01
RMM:   4    -0.639630442252E+03    0.22083E-03   -0.19767E-04   966   0.250E-02    0.531E-02
RMM:   5    -0.639630428041E+03    0.14211E-04   -0.12951E-04   920   0.188E-02    0.398E-02
RMM:   6    -0.639630421393E+03    0.66479E-05   -0.11216E-04   892   0.160E-02    0.315E-02
RMM:   7    -0.639630406896E+03    0.14497E-04   -0.32390E-05   784   0.945E-03    0.879E-03
RMM:   8    -0.639630407009E+03   -0.11308E-06   -0.45245E-06   652   0.464E-03
  43 F= -.63962171E+03 E0= -.63947363E+03  d E =-.402723E-02  mag=     0.0000
       N       E                     dE             d eps       ncg     rms          rms(c)
RMM:   1    -0.639630906756E+03   -0.49986E-03   -0.78040E-02  1072   0.480E-01    0.751E-02
RMM:   2    -0.639631005996E+03   -0.99240E-04   -0.23836E-03  1204   0.583E-02    0.691E-02
RMM:   3    -0.639630977039E+03    0.28958E-04   -0.21868E-04   929   0.267E-02    0.620E-02
RMM:   4    -0.639630924202E+03    0.52836E-04   -0.45642E-05   820   0.128E-02    0.251E-02
RMM:   5    -0.639630921932E+03    0.22703E-05   -0.28269E-05   782   0.100E-02
  44 F= -.63962226E+03 E0= -.63947470E+03  d E =-.458080E-02  mag=     0.0000
       N       E                     dE             d eps       ncg     rms          rms(c)
RMM:   1    -0.639633283617E+03   -0.23594E-02   -0.13779E-01  1072   0.593E-01    0.802E-02
RMM:   2    -0.639633596949E+03   -0.31333E-03   -0.46374E-03  1212   0.722E-02    0.706E-02
RMM:   3    -0.639633561510E+03    0.35439E-04   -0.28691E-04   936   0.290E-02    0.579E-02
RMM:   4    -0.639633515104E+03    0.46406E-04   -0.37941E-05   798   0.117E-02    0.277E-02
RMM:   5    -0.639633514513E+03    0.59152E-06   -0.38477E-05   808   0.978E-03
  45 F= -.63962488E+03 E0= -.63947707E+03  d E =-.261912E-02  mag=     0.0000
       N       E                     dE             d eps       ncg     rms          rms(c)
RMM:   1    -0.639635697891E+03   -0.21828E-02   -0.12397E+00  1072   0.178E+00    0.238E-01
RMM:   2    -0.639638477981E+03   -0.27801E-02   -0.42221E-02  1214   0.220E-01    0.197E-01
RMM:   3    -0.639638197441E+03    0.28054E-03   -0.23791E-03  1121   0.844E-02    0.166E-01
RMM:   4    -0.639637826559E+03    0.37088E-03   -0.34339E-04   947   0.326E-02    0.841E-02
RMM:   5    -0.639637797856E+03    0.28703E-04   -0.33627E-04  1000   0.260E-02    0.709E-02
RMM:   6    -0.639637761722E+03    0.36134E-04   -0.40564E-04  1058   0.249E-02    0.477E-02
RMM:   7    -0.639637738790E+03    0.22932E-04   -0.74801E-05   848   0.126E-02    0.167E-02
RMM:   8    -0.639637734939E+03    0.38509E-05   -0.86673E-06   681   0.587E-03
  46 F= -.63962912E+03 E0= -.63948199E+03  d E =-.686506E-02  mag=     0.0000
       N       E                     dE             d eps       ncg     rms          rms(c)
RMM:   1    -0.639637770998E+03   -0.32208E-04   -0.11643E-01  1072   0.544E-01    0.750E-02
RMM:   2    -0.639638035971E+03   -0.26497E-03   -0.41685E-03  1214   0.678E-02    0.507E-02
RMM:   3    -0.639638013493E+03    0.22478E-04   -0.16583E-04   918   0.233E-02    0.442E-02
RMM:   4    -0.639637989849E+03    0.23644E-04   -0.29084E-05   780   0.996E-03    0.259E-02
RMM:   5    -0.639637988071E+03    0.17778E-05   -0.30487E-05   798   0.853E-03
  47 F= -.63962939E+03 E0= -.63948210E+03  d E =-.713159E-02  mag=     0.0000
       N       E                     dE             d eps       ncg     rms          rms(c)
RMM:   1    -0.639640236601E+03   -0.22468E-02   -0.23920E-01  1072   0.743E-01    0.101E-01
RMM:   2    -0.639640839287E+03   -0.60269E-03   -0.84396E-03  1216   0.933E-02    0.811E-02
RMM:   3    -0.639640787586E+03    0.51701E-04   -0.38779E-04   982   0.341E-02    0.686E-02
RMM:   4    -0.639640725437E+03    0.62149E-04   -0.52005E-05   812   0.131E-02    0.355E-02
RMM:   5    -0.639640722103E+03    0.33348E-05   -0.53650E-05   814   0.110E-02
  48 F= -.63963213E+03 E0= -.63948559E+03  d E =-.273523E-02  mag=     0.0000
       N       E                     dE             d eps       ncg     rms          rms(c)
RMM:   1    -0.639641770192E+03   -0.10448E-02   -0.21551E+00  1072   0.223E+00    0.310E-01
RMM:   2    -0.639648210025E+03   -0.64398E-02   -0.79331E-02  1216   0.294E-01    0.360E-01
RMM:   3    -0.639646734336E+03    0.14757E-02   -0.53501E-03  1130   0.121E-01    0.217E-01
RMM:   4    -0.639646157098E+03    0.57724E-03   -0.55379E-04  1014   0.402E-02    0.121E-01
RMM:   5    -0.639646053640E+03    0.10346E-03   -0.29204E-04   882   0.241E-02    0.952E-02
RMM:   6    -0.639646006092E+03    0.47548E-04   -0.80244E-04  1054   0.348E-02    0.724E-02
RMM:   7    -0.639645948730E+03    0.57362E-04   -0.28235E-04   904   0.199E-02    0.209E-02
RMM:   8    -0.639645945114E+03    0.36158E-05   -0.21903E-05   782   0.930E-03
  49 F= -.63963741E+03 E0= -.63949120E+03  d E =-.801766E-02  mag=     0.0000
       N       E                     dE             d eps       ncg     rms          rms(c)
RMM:   1    -0.639628917496E+03    0.17031E-01   -0.86511E+00  1072   0.446E+00    0.668E-01
RMM:   2    -0.639661804227E+03   -0.32887E-01   -0.34648E-01  1208   0.649E-01    0.102E+00
RMM:   3    -0.639645428043E+03    0.16376E-01   -0.31131E-02  1124   0.278E-01    0.340E-01
RMM:   4    -0.639644239273E+03    0.11888E-02   -0.28954E-03  1070   0.796E-02    0.258E-01
RMM:   5    -0.639643646934E+03    0.59234E-03   -0.96344E-04  1048   0.423E-02    0.189E-01
RMM:   6    -0.639643500210E+03    0.14672E-03   -0.26124E-03  1076   0.639E-02    0.169E-01
RMM:   7    -0.639643163001E+03    0.33721E-03   -0.14739E-03  1080   0.444E-02    0.401E-02
RMM:   8    -0.639643163590E+03   -0.58900E-06   -0.12995E-04   862   0.196E-02    0.319E-02
RMM:   9    -0.639643141039E+03    0.22551E-04   -0.34527E-05   798   0.875E-03    0.201E-02
RMM:  10    -0.639643136753E+03    0.42864E-05   -0.31766E-05   786   0.690E-03
  50 F= -.63963470E+03 E0= -.63948972E+03  d E =-.530768E-02  mag=     0.0000
       N       E                     dE             d eps       ncg     rms          rms(c)
RMM:   1    -0.639640058105E+03    0.30829E-02   -0.36945E+00  1072   0.292E+00    0.387E-01
RMM:   2    -0.639649550330E+03   -0.94922E-02   -0.13206E-01  1216   0.370E-01    0.376E-01
RMM:   3    -0.639648470679E+03    0.10797E-02   -0.62076E-03  1150   0.143E-01    0.297E-01
RMM:   4    -0.639647305714E+03    0.11650E-02   -0.85776E-04  1052   0.503E-02    0.150E-01
RMM:   5    -0.639647230261E+03    0.75453E-04   -0.92428E-04  1050   0.403E-02    0.140E-01
RMM:   6    -0.639647018280E+03    0.21198E-03   -0.13403E-03  1084   0.430E-02    0.559E-02
RMM:   7    -0.639647009521E+03    0.87593E-05   -0.26995E-04   926   0.214E-02    0.288E-02
RMM:   8    -0.639646995121E+03    0.14400E-04   -0.22604E-05   786   0.844E-03    0.207E-02
RMM:   9    -0.639646987222E+03    0.78989E-05   -0.17595E-05   726   0.627E-03
  51 F= -.63963851E+03 E0= -.63949263E+03  d E =-.912053E-02  mag=     0.0000
       N       E                     dE             d eps       ncg     rms          rms(c)
RMM:   1    -0.639649378345E+03   -0.23832E-02   -0.34736E-01  1072   0.876E-01    0.117E-01
RMM:   2    -0.639650346646E+03   -0.96830E-03   -0.12587E-02  1212   0.113E-01    0.107E-01
RMM:   3    -0.639650239324E+03    0.10732E-03   -0.62126E-04  1006   0.424E-02    0.824E-02
RMM:   4    -0.639650152462E+03    0.86862E-04   -0.74851E-05   828   0.154E-02    0.444E-02
RMM:   5    -0.639650139570E+03    0.12892E-04   -0.55409E-05   822   0.106E-02    0.347E-02
RMM:   6    -0.639650133511E+03    0.60593E-05   -0.13095E-04   868   0.138E-02    0.251E-02
RMM:   7    -0.639650128475E+03    0.50358E-05   -0.31140E-05   760   0.741E-03
  52 F= -.63964168E+03 E0= -.63949608E+03  d E =-.317411E-02  mag=     0.0000
       N       E                     dE             d eps       ncg     rms          rms(c)
RMM:   1    -0.639650612018E+03   -0.47851E-03   -0.31276E+00  1072   0.263E+00    0.379E-01
RMM:   2    -0.639661122156E+03   -0.10510E-01   -0.12195E-01  1214   0.363E-01    0.483E-01
RMM:   3    -0.639658047533E+03    0.30746E-02   -0.89657E-03  1136   0.153E-01    0.240E-01
RMM:   4    -0.639657335623E+03    0.71191E-03   -0.76959E-04  1028   0.460E-02    0.143E-01
RMM:   5    -0.639657178241E+03    0.15738E-03   -0.34881E-04   902   0.254E-02    0.111E-01
RMM:   6    -0.639657119517E+03    0.58724E-04   -0.10551E-03  1050   0.384E-02    0.927E-02
RMM:   7    -0.639657033341E+03    0.86176E-04   -0.48187E-04   946   0.248E-02    0.265E-02
RMM:   8    -0.639657029322E+03    0.40186E-05   -0.36214E-05   802   0.109E-02
  53 F= -.63964868E+03 E0= -.63950418E+03  d E =-.101645E-01  mag=     0.0000
       N       E                     dE             d eps       ncg     rms          rms(c)
RMM:   1    -0.639641486933E+03    0.15546E-01   -0.12559E+01  1072   0.526E+00    0.859E-01
RMM:   2    -0.639701795675E+03   -0.60309E-01   -0.54268E-01  1192   0.832E-01    0.150E+00
RMM:   3    -0.639663046967E+03    0.38749E-01   -0.59778E-02  1128   0.366E-01    0.375E-01
RMM:   4    -0.639661772276E+03    0.12747E-02   -0.59963E-03  1070   0.101E-01    0.313E-01
RMM:   5    -0.639660858978E+03    0.91330E-03   -0.12429E-03  1050   0.439E-02    0.223E-01
RMM:   6    -0.639660218670E+03    0.64031E-03   -0.53899E-03  1070   0.823E-02    0.953E-02
RMM:   7    -0.639660226899E+03   -0.82295E-05   -0.12151E-03  1092   0.373E-02    0.657E-02
RMM:   8    -0.639660174126E+03    0.52773E-04   -0.80051E-05   838   0.150E-02    0.469E-02
RMM:   9    -0.639660139468E+03    0.34658E-04   -0.68402E-05   816   0.109E-02    0.307E-02
RMM:  10    -0.639660129335E+03    0.10132E-04   -0.88273E-05   856   0.100E-02    0.149E-02
RMM:  11    -0.639660132139E+03   -0.28035E-05   -0.29934E-05   778   0.655E-03
  54 F= -.63965199E+03 E0= -.63950948E+03  d E =-.134835E-01  mag=     0.0000
       N       E                     dE             d eps       ncg     rms          rms(c)
RMM:   1    -0.639658269970E+03    0.18594E-02   -0.11075E+00  1072   0.156E+00    0.209E-01
RMM:   2    -0.639661133073E+03   -0.28631E-02   -0.40481E-02  1214   0.199E-01    0.148E-01
RMM:   3    -0.639660947807E+03    0.18527E-03   -0.10248E-03  1138   0.600E-02    0.132E-01
RMM:   4    -0.639660747550E+03    0.20026E-03   -0.17493E-04   866   0.223E-02    0.795E-02
RMM:   5    -0.639660706056E+03    0.41494E-04   -0.25984E-04   896   0.208E-02    0.586E-02
RMM:   6    -0.639660677991E+03    0.28065E-04   -0.40776E-04   976   0.229E-02    0.225E-02
RMM:   7    -0.639660679092E+03   -0.11010E-05   -0.53162E-05   830   0.101E-02
  55 F= -.63965253E+03 E0= -.63950934E+03  d E =-.140197E-01  mag=     0.0000
       N       E                     dE             d eps       ncg     rms          rms(c)
RMM:   1    -0.639663462351E+03   -0.27844E-02   -0.12923E+00  1074   0.166E+00    0.229E-01
RMM:   2    -0.639668120942E+03   -0.46586E-02   -0.49836E-02  1216   0.229E-01    0.317E-01
RMM:   3    -0.639666812837E+03    0.13081E-02   -0.33031E-03  1118   0.944E-02    0.153E-01
RMM:   4    -0.639666532173E+03    0.28066E-03   -0.27028E-04   908   0.268E-02    0.941E-02
RMM:   5    -0.639666473933E+03    0.58240E-04   -0.15899E-04   852   0.172E-02    0.782E-02
RMM:   6    -0.639666419448E+03    0.54484E-04   -0.57061E-04  1002   0.274E-02    0.508E-02
RMM:   7    -0.639666399819E+03    0.19629E-04   -0.20273E-04   924   0.163E-02    0.181E-02
RMM:   8    -0.639666394462E+03    0.53566E-05   -0.10386E-05   678   0.666E-03
  56 F= -.63965827E+03 E0= -.63951554E+03  d E =-.573873E-02  mag=     0.0000
       N       E                     dE             d eps       ncg     rms          rms(c)
RMM:   1    -0.639658188275E+03    0.82115E-02   -0.11662E+01  1072   0.499E+00    0.841E-01
RMM:   2    -0.639722317177E+03   -0.64129E-01   -0.52009E-01  1198   0.818E-01    0.155E+00
RMM:   3    -0.639679957147E+03    0.42360E-01   -0.59226E-02  1126   0.361E-01    0.364E-01
RMM:   4    -0.639678895369E+03    0.10618E-02   -0.63605E-03  1072   0.985E-02    0.308E-01
RMM:   5    -0.639678094639E+03    0.80073E-03   -0.11582E-03  1024   0.421E-02    0.231E-01
RMM:   6    -0.639677745129E+03    0.34951E-03   -0.32924E-03  1076   0.672E-02    0.197E-01
RMM:   7    -0.639677335628E+03    0.40950E-03   -0.24529E-03  1096   0.542E-02    0.527E-02
RMM:   8    -0.639677337667E+03   -0.20395E-05   -0.19160E-04   878   0.228E-02    0.432E-02
RMM:   9    -0.639677304051E+03    0.33617E-04   -0.45644E-05   802   0.101E-02    0.319E-02
RMM:  10    -0.639677287641E+03    0.16409E-04   -0.63009E-05   810   0.889E-03    0.152E-02
RMM:  11    -0.639677288542E+03   -0.90047E-06   -0.33830E-05   762   0.651E-03
  57 F= -.63966922E+03 E0= -.63952773E+03  d E =-.166943E-01  mag=     0.0000
       N       E                     dE             d eps       ncg     rms          rms(c)
RMM:   1    -0.639666257734E+03    0.11030E-01   -0.47017E+01  1072   0.999E+00    0.249E+00
RMM:   2    -0.640217806371E+03   -0.55155E+00   -0.27487E+00  1078   0.237E+00    0.444E+00
RMM:   3    -0.639733220179E+03    0.48459E+00   -0.60891E-01  1090   0.101E+00    0.175E+00
RMM:   4    -0.639696732680E+03    0.36487E-01   -0.12204E-01  1072   0.466E-01    0.120E+00
RMM:   5    -0.639678590585E+03    0.18142E-01   -0.28231E-02  1076   0.210E-01    0.622E-01
RMM:   6    -0.639676639003E+03    0.19516E-02   -0.35419E-03  1066   0.814E-02    0.532E-01
RMM:   7    -0.639677761186E+03   -0.11222E-02   -0.18034E-02  1072   0.166E-01    0.621E-01
RMM:   8    -0.639672828741E+03    0.49324E-02   -0.10290E-02  1094   0.106E-01    0.287E-01
RMM:   9    -0.639672336627E+03    0.49211E-03   -0.51539E-03  1032   0.105E-01    0.196E-01
RMM:  10    -0.639671879801E+03    0.45683E-03   -0.36794E-04   882   0.206E-02    0.142E-01
RMM:  11    -0.639671464809E+03    0.41499E-03   -0.70276E-04   910   0.278E-02    0.497E-02
RMM:  12    -0.639671465262E+03   -0.45314E-06   -0.42600E-04   984   0.208E-02    0.195E-02
RMM:  13    -0.639671471330E+03   -0.60677E-05   -0.18433E-05   742   0.768E-03
  58 F= -.63966357E+03 E0= -.63952468E+03  d E =-.110351E-01  mag=     0.0000
       N       E                     dE             d eps       ncg     rms          rms(c)
RMM:   1    -0.639659842958E+03    0.11622E-01   -0.23642E+01  1074   0.710E+00    0.105E+00
RMM:   2    -0.639737642789E+03   -0.77800E-01   -0.95357E-01  1216   0.104E+00    0.177E+00
RMM:   3    -0.639684782051E+03    0.52861E-01   -0.77109E-02  1154   0.457E-01    0.502E-01
RMM:   4    -0.639682370731E+03    0.24113E-02   -0.66868E-03  1070   0.103E-01    0.426E-01
RMM:   5    -0.639680889523E+03    0.14812E-02   -0.33920E-03  1072   0.714E-02    0.326E-01
RMM:   6    -0.639679624385E+03    0.12651E-02   -0.99363E-03  1086   0.114E-01    0.157E-01
RMM:   7    -0.639679509560E+03    0.11482E-03   -0.20105E-03  1146   0.535E-02    0.829E-02
RMM:   8    -0.639679440359E+03    0.69202E-04   -0.12560E-04   856   0.170E-02    0.672E-02
RMM:   9    -0.639679370875E+03    0.69484E-04   -0.76162E-05   824   0.118E-02    0.431E-02
RMM:  10    -0.639679337871E+03    0.33004E-04   -0.22729E-04   882   0.160E-02    0.117E-02
RMM:  11    -0.639679341460E+03   -0.35888E-05   -0.43217E-05   812   0.807E-03
  59 F= -.63967139E+03 E0= -.63953065E+03  d E =-.188599E-01  mag=     0.0000
       N       E                     dE             d eps       ncg     rms          rms(c)
RMM:   1    -0.639682139266E+03   -0.28014E-02   -0.16454E+00  1072   0.184E+00    0.264E-01
RMM:   2    -0.639688148211E+03   -0.60089E-02   -0.66381E-02  1222   0.262E-01    0.340E-01
RMM:   3    -0.639686643780E+03    0.15044E-02   -0.41659E-03  1108   0.107E-01    0.171E-01
RMM:   4    -0.639686287523E+03    0.35626E-03   -0.32806E-04   924   0.303E-02    0.102E-01
RMM:   5    -0.639686216058E+03    0.71464E-04   -0.21297E-04   870   0.194E-02    0.840E-02
RMM:   6    -0.639686156258E+03    0.59800E-04   -0.68041E-04   996   0.294E-02    0.533E-02
RMM:   7    -0.639686138374E+03    0.17884E-04   -0.23104E-04   936   0.172E-02    0.209E-02
RMM:   8    -0.639686130600E+03    0.77749E-05   -0.11197E-05   692   0.675E-03
  60 F= -.63967821E+03 E0= -.63953837E+03  d E =-.682398E-02  mag=     0.0000
       N       E                     dE             d eps       ncg     rms          rms(c)
RMM:   1    -0.639679169812E+03    0.69686E-02   -0.14908E+01  1074   0.555E+00    0.966E-01
RMM:   2    -0.639764401213E+03   -0.85231E-01   -0.68812E-01  1194   0.956E-01    0.177E+00
RMM:   3    -0.639706264685E+03    0.58137E-01   -0.82283E-02  1122   0.419E-01    0.424E-01
RMM:   4    -0.639704748649E+03    0.15160E-02   -0.86581E-03  1074   0.113E-01    0.347E-01
RMM:   5    -0.639703741188E+03    0.10075E-02   -0.14779E-03  1038   0.476E-02    0.263E-01
RMM:   6    -0.639702875051E+03    0.86614E-03   -0.69321E-03  1072   0.925E-02    0.138E-01
RMM:   7    -0.639702771625E+03    0.10343E-03   -0.17397E-03  1112   0.450E-02    0.741E-02
RMM:   8    -0.639702735288E+03    0.36337E-04   -0.15064E-04   860   0.203E-02    0.558E-02
RMM:   9    -0.639702684740E+03    0.50548E-04   -0.88327E-05   820   0.123E-02    0.401E-02
RMM:  10    -0.639702661768E+03    0.22972E-04   -0.11798E-04   854   0.114E-02    0.171E-02
RMM:  11    -0.639702664096E+03   -0.23281E-05   -0.50094E-05   812   0.756E-03
  61 F= -.63969490E+03 E0= -.63955781E+03  d E =-.235052E-01  mag=     0.0000
       N       E                     dE             d eps       ncg     rms          rms(c)
RMM:   1    -0.639723858644E+03   -0.21197E-01   -0.59867E+01  1074   0.110E+01    0.300E+00
RMM:   2    -0.640504719984E+03   -0.78086E+00   -0.38783E+00  1078   0.289E+00    0.521E+00
RMM:   3    -0.639829381652E+03    0.67534E+00   -0.84208E-01  1086   0.124E+00    0.224E+00
RMM:   4    -0.639768490217E+03    0.60891E-01   -0.16430E-01  1080   0.532E-01    0.160E+00
RMM:   5    -0.639731523804E+03    0.36966E-01   -0.47751E-02  1076   0.283E-01    0.805E-01
RMM:   6    -0.639727761409E+03    0.37624E-02   -0.62819E-03  1090   0.100E-01    0.662E-01
RMM:   7    -0.639726907957E+03    0.85345E-03   -0.22398E-02  1074   0.180E-01    0.655E-01
RMM:   8    -0.639720771686E+03    0.61363E-02   -0.13387E-02  1078   0.123E-01    0.260E-01
RMM:   9    -0.639720799882E+03   -0.28196E-04   -0.61381E-03  1040   0.118E-01    0.226E-01
RMM:  10    -0.639720315373E+03    0.48451E-03   -0.53349E-04   908   0.238E-02    0.185E-01
RMM:  11    -0.639719657945E+03    0.65743E-03   -0.88707E-04   918   0.317E-02    0.703E-02
RMM:  12    -0.639719633271E+03    0.24675E-04   -0.46077E-04   986   0.238E-02    0.268E-02
RMM:  13    -0.639719641330E+03   -0.80593E-05   -0.45355E-05   808   0.105E-02
  62 F= -.63971222E+03 E0= -.63958072E+03  d E =-.408338E-01  mag=     0.0000
       N       E                     dE             d eps       ncg     rms          rms(c)
RMM:   1    -0.639722769157E+03   -0.31359E-02   -0.24352E+00  1074   0.222E+00    0.325E-01
RMM:   2    -0.639732190004E+03   -0.94208E-02   -0.10032E-01  1226   0.328E-01    0.436E-01
RMM:   3    -0.639729278646E+03    0.29114E-02   -0.66613E-03  1128   0.136E-01    0.182E-01
RMM:   4    -0.639728903050E+03    0.37560E-03   -0.44739E-04   942   0.329E-02    0.123E-01
RMM:   5    -0.639728792057E+03    0.11099E-03   -0.31413E-04   906   0.228E-02    0.988E-02
RMM:   6    -0.639728722159E+03    0.69898E-04   -0.10573E-03  1018   0.364E-02    0.644E-02
RMM:   7    -0.639728702281E+03    0.19877E-04   -0.31923E-04   976   0.196E-02    0.275E-02
RMM:   8    -0.639728694586E+03    0.76953E-05   -0.17208E-05   748   0.768E-03
  63 F= -.63972141E+03 E0= -.63959059E+03  d E =-.918207E-02  mag=     0.0000
       N       E                     dE             d eps       ncg     rms          rms(c)
RMM:   1    -0.639727913615E+03    0.78867E-03   -0.77250E+00  1074   0.396E+00    0.643E-01
RMM:   2    -0.639763571579E+03   -0.35658E-01   -0.34477E-01  1222   0.643E-01    0.101E+00
RMM:   3    -0.639745526576E+03    0.18045E-01   -0.30216E-02  1118   0.279E-01    0.283E-01
RMM:   4    -0.639744781235E+03    0.74534E-03   -0.22207E-03  1060   0.604E-02    0.221E-01
RMM:   5    -0.639744380513E+03    0.40072E-03   -0.73428E-04   964   0.332E-02    0.172E-01
RMM:   6    -0.639744017402E+03    0.36311E-03   -0.38985E-03  1060   0.681E-02    0.687E-02
RMM:   7    -0.639744039260E+03   -0.21858E-04   -0.64746E-04  1044   0.279E-02    0.531E-02
RMM:   8    -0.639743997972E+03    0.41287E-04   -0.47807E-05   810   0.115E-02    0.354E-02
RMM:   9    -0.639743978892E+03    0.19080E-04   -0.64423E-05   818   0.949E-03    0.203E-02
RMM:  10    -0.639743980763E+03   -0.18710E-05   -0.79141E-05   840   0.943E-03
  64 F= -.63973684E+03 E0= -.63960752E+03  d E =-.246120E-01  mag=     0.0000
       N       E                     dE             d eps       ncg     rms          rms(c)
RMM:   1    -0.639750947070E+03   -0.69682E-02   -0.31227E+01  1074   0.796E+00    0.161E+00
RMM:   2    -0.639950689320E+03   -0.19974E+00   -0.15443E+00  1120   0.163E+00    0.277E+00
RMM:   3    -0.639784973727E+03    0.16572E+00   -0.27018E-01  1142   0.682E-01    0.829E-01
RMM:   4    -0.639779158348E+03    0.58154E-02   -0.35647E-02  1080   0.251E-01    0.667E-01
RMM:   5    -0.639774873802E+03    0.42845E-02   -0.59005E-03  1076   0.948E-02    0.451E-01
RMM:   6    -0.639773708192E+03    0.11656E-02   -0.21559E-03  1036   0.637E-02    0.386E-01
RMM:   7    -0.639771845356E+03    0.18628E-02   -0.16140E-02  1072   0.136E-01    0.181E-01
RMM:   8    -0.639771698688E+03    0.14667E-03   -0.30141E-03  1100   0.670E-02    0.112E-01
RMM:   9    -0.639771565777E+03    0.13291E-03   -0.38562E-04   912   0.295E-02    0.103E-01
RMM:  10    -0.639771343883E+03    0.22189E-03   -0.45071E-04   898   0.220E-02    0.501E-02
RMM:  11    -0.639771326035E+03    0.17848E-04   -0.42836E-04   930   0.205E-02    0.142E-02
RMM:  12    -0.639771328961E+03   -0.29265E-05   -0.16336E-05   726   0.759E-03
  65 F= -.63976443E+03 E0= -.63963792E+03  d E =-.522025E-01  mag=     0.0000
       N       E                     dE             d eps       ncg     rms          rms(c)
RMM:   1    -0.639565687207E+03    0.20564E+00   -0.11349E+02  1074   0.153E+01    0.692E+00
RMM:   2    -0.643711993377E+03   -0.41463E+01   -0.16001E+01  1072   0.565E+00    0.983E+00
RMM:   3    -0.640689526248E+03    0.30225E+01   -0.30045E+00  1072   0.286E+00    0.525E+00
RMM:   4    -0.640257445808E+03    0.43208E+00   -0.58514E-01  1080   0.107E+00    0.393E+00
RMM:   5    -0.639897498406E+03    0.35995E+00   -0.39264E-01  1072   0.896E-01    0.192E+00
RMM:   6    -0.639865235355E+03    0.32263E-01   -0.54512E-02  1124   0.252E-01    0.153E+00
RMM:   7    -0.639841640978E+03    0.23594E-01   -0.18442E-02  1074   0.163E-01    0.124E+00
RMM:   8    -0.639806740162E+03    0.34901E-01   -0.64382E-02  1074   0.314E-01    0.226E-01
RMM:   9    -0.639810101264E+03   -0.33611E-02   -0.20267E-02  1072   0.209E-01    0.389E-01
RMM:  10    -0.639808088732E+03    0.20125E-02   -0.17829E-03  1060   0.453E-02    0.257E-01
RMM:  11    -0.639806996210E+03    0.10925E-02   -0.10247E-03   952   0.419E-02    0.100E-01
RMM:  12    -0.639806898821E+03    0.97389E-04   -0.49279E-04   906   0.333E-02    0.293E-02
RMM:  13    -0.639806917767E+03   -0.18946E-04   -0.56585E-05   822   0.120E-02    0.218E-02
RMM:  14    -0.639806930154E+03   -0.12387E-04   -0.33884E-05   800   0.900E-03    0.751E-03
RMM:  15    -0.639806949947E+03   -0.19793E-04   -0.49729E-06   658   0.420E-03    0.381E-03
RMM:  16    -0.639806974545E+03   -0.24599E-04   -0.30885E-06   604   0.312E-03    0.385E-03
RMM:  17    -0.639806991961E+03   -0.17416E-04   -0.20465E-06   568   0.265E-03    0.335E-03
RMM:  18    -0.639807019533E+03   -0.27572E-04   -0.43321E-06   564   0.271E-03    0.384E-03
RMM:  19    -0.639807033570E+03   -0.14037E-04   -0.23955E-06   526   0.262E-03    0.128E-03
RMM:  20    -0.639807041267E+03   -0.76966E-05   -0.14238E-06   470   0.195E-03
  66 F= -.63980066E+03 E0= -.63967910E+03  d E =-.884320E-01  mag=     0.0000
       N       E                     dE             d eps       ncg     rms          rms(c)
RMM:   1    -0.639795282638E+03    0.11751E-01   -0.30128E+01  1074   0.789E+00    0.151E+00
RMM:   2    -0.639930027727E+03   -0.13475E+00   -0.14235E+00  1134   0.158E+00    0.226E+00
RMM:   3    -0.639819217193E+03    0.11081E+00   -0.23575E-01  1170   0.643E-01    0.684E-01
RMM:   4    -0.639815191840E+03    0.40254E-02   -0.21490E-02  1090   0.199E-01    0.590E-01
RMM:   5    -0.639812076486E+03    0.31154E-02   -0.35505E-03  1068   0.756E-02    0.424E-01
RMM:   6    -0.639810730798E+03    0.13457E-02   -0.30826E-03  1048   0.750E-02    0.345E-01
RMM:   7    -0.639809327257E+03    0.14035E-02   -0.15491E-02  1072   0.139E-01    0.110E-01
RMM:   8    -0.639809329972E+03   -0.27153E-05   -0.17735E-03  1002   0.705E-02    0.923E-02
RMM:   9    -0.639809184432E+03    0.14554E-03   -0.23165E-04   886   0.212E-02    0.786E-02
RMM:  10    -0.639809045763E+03    0.13867E-03   -0.30906E-04   896   0.199E-02    0.347E-02
RMM:  11    -0.639809037833E+03    0.79294E-05   -0.11479E-04   918   0.123E-02    0.136E-02
RMM:  12    -0.639809039577E+03   -0.17432E-05   -0.79858E-06   634   0.577E-03
  67 F= -.63980280E+03 E0= -.63968313E+03  d E =-.905756E-01  mag=     0.0000
       N       E                     dE             d eps       ncg     rms          rms(c)
RMM:   1    -0.639815375220E+03   -0.63374E-02   -0.21959E+01  1074   0.679E+00    0.121E+00
RMM:   2    -0.639902167524E+03   -0.86792E-01   -0.10163E+00  1180   0.127E+00    0.167E+00
RMM:   3    -0.639842059624E+03    0.60108E-01   -0.12097E-01  1152   0.523E-01    0.493E-01
RMM:   4    -0.639839983822E+03    0.20758E-02   -0.11043E-02  1092   0.135E-01    0.407E-01
RMM:   5    -0.639838772347E+03    0.12115E-02   -0.18152E-03  1056   0.539E-02    0.330E-01
RMM:   6    -0.639838067706E+03    0.70464E-03   -0.40541E-03  1066   0.817E-02    0.279E-01
RMM:   7    -0.639837246500E+03    0.82121E-03   -0.72068E-03  1082   0.968E-02    0.758E-02
RMM:   8    -0.639837260355E+03   -0.13856E-04   -0.75710E-04   944   0.490E-02    0.633E-02
RMM:   9    -0.639837186813E+03    0.73542E-04   -0.10555E-04   864   0.148E-02    0.490E-02
RMM:  10    -0.639837137397E+03    0.49416E-04   -0.14956E-04   872   0.140E-02    0.193E-02
RMM:  11    -0.639837140189E+03   -0.27915E-05   -0.38045E-05   802   0.785E-03
  68 F= -.63983099E+03 E0= -.63971252E+03  d E =-.281932E-01  mag=     0.0000
       N       E                     dE             d eps       ncg     rms          rms(c)
RMM:   1    -0.639829018685E+03    0.81187E-02   -0.81796E+00  1074   0.417E+00    0.670E-01
RMM:   2    -0.639859202309E+03   -0.30184E-01   -0.35864E-01  1214   0.706E-01    0.815E-01
RMM:   3    -0.639845865261E+03    0.13337E-01   -0.28856E-02  1136   0.284E-01    0.282E-01
RMM:   4    -0.639845102128E+03    0.76313E-03   -0.21684E-03  1082   0.601E-02    0.219E-01
RMM:   5    -0.639844727493E+03    0.37464E-03   -0.94059E-04  1018   0.391E-02    0.172E-01
RMM:   6    -0.639844473040E+03    0.25445E-03   -0.39861E-03  1074   0.725E-02    0.831E-02
RMM:   7    -0.639844456840E+03    0.16200E-04   -0.62454E-04  1038   0.310E-02    0.550E-02
RMM:   8    -0.639844406787E+03    0.50053E-04   -0.84868E-05   856   0.149E-02    0.335E-02
RMM:   9    -0.639844388276E+03    0.18511E-04   -0.11945E-04   864   0.124E-02    0.144E-02
RMM:  10    -0.639844392082E+03   -0.38067E-05   -0.48085E-05   824   0.782E-03
  69 F= -.63983829E+03 E0= -.63972040E+03  d E =-.354915E-01  mag=     0.0000
       N       E                     dE             d eps       ncg     rms          rms(c)
RMM:   1    -0.639867609911E+03   -0.23222E-01   -0.60611E-01  1072   0.137E+00    0.172E-01
RMM:   2    -0.639868406274E+03   -0.79636E-03   -0.17062E-02  1214   0.159E-01    0.101E-01
RMM:   3    -0.639868271101E+03    0.13517E-03   -0.65145E-04  1140   0.498E-02    0.737E-02
RMM:   4    -0.639868217809E+03    0.53292E-04   -0.14663E-04   902   0.212E-02    0.539E-02
RMM:   5    -0.639868241959E+03   -0.24151E-04   -0.22163E-04  1006   0.216E-02    0.614E-02
RMM:   6    -0.639868189229E+03    0.52730E-04   -0.10470E-04   858   0.145E-02    0.149E-02
RMM:   7    -0.639868194439E+03   -0.52103E-05   -0.14609E-05   738   0.744E-03
  70 F= -.63986210E+03 E0= -.63974401E+03  d E =-.238088E-01  mag=     0.0000
       N       E                     dE             d eps       ncg     rms          rms(c)
RMM:   1    -0.639905621142E+03   -0.37432E-01   -0.54568E+00  1072   0.411E+00    0.516E-01
RMM:   2    -0.639912545568E+03   -0.69244E-02   -0.15405E-01  1214   0.477E-01    0.301E-01
RMM:   3    -0.639911392747E+03    0.11528E-02   -0.55624E-03  1152   0.145E-01    0.225E-01
RMM:   4    -0.639910940852E+03    0.45189E-03   -0.13291E-03  1070   0.630E-02    0.173E-01
RMM:   5    -0.639911001316E+03   -0.60464E-04   -0.18572E-03  1076   0.622E-02    0.176E-01
RMM:   6    -0.639910599810E+03    0.40151E-03   -0.10268E-03  1090   0.437E-02    0.473E-02
RMM:   7    -0.639910607405E+03   -0.75941E-05   -0.14534E-04   878   0.197E-02    0.304E-02
RMM:   8    -0.639910584780E+03    0.22625E-04   -0.30646E-05   804   0.930E-03    0.164E-02
RMM:   9    -0.639910581242E+03    0.35378E-05   -0.33921E-05   814   0.829E-03
  71 F= -.63990446E+03 E0= -.63978587E+03  d E =-.661712E-01  mag=     0.0000
       N       E                     dE             d eps       ncg     rms          rms(c)
RMM:   1    -0.639914225614E+03   -0.36408E-02   -0.11443E+00  1072   0.188E+00    0.235E-01
RMM:   2    -0.639915764769E+03   -0.15392E-02   -0.32303E-02  1212   0.219E-01    0.139E-01
RMM:   3    -0.639915511215E+03    0.25355E-03   -0.12007E-03  1148   0.675E-02    0.102E-01
RMM:   4    -0.639915414946E+03    0.96269E-04   -0.28536E-04   988   0.291E-02    0.783E-02
RMM:   5    -0.639915444320E+03   -0.29374E-04   -0.40254E-04  1056   0.291E-02    0.843E-02
RMM:   6    -0.639915346764E+03    0.97555E-04   -0.21982E-04   940   0.204E-02    0.191E-02
RMM:   7    -0.639915354356E+03   -0.75912E-05   -0.28144E-05   786   0.969E-03
  72 F= -.63990922E+03 E0= -.63979031E+03  d E =-.709267E-01  mag=     0.0000
       N       E                     dE             d eps       ncg     rms          rms(c)
RMM:   1    -0.639931429932E+03   -0.16083E-01   -0.50815E-01  1072   0.123E+00    0.169E-01
RMM:   2    -0.639932199292E+03   -0.76936E-03   -0.15701E-02  1210   0.148E-01    0.127E-01
RMM:   3    -0.639932161774E+03    0.37518E-04   -0.10329E-03  1134   0.583E-02    0.132E-01
RMM:   4    -0.639931913690E+03    0.24808E-03   -0.18165E-04   924   0.242E-02    0.565E-02
RMM:   5    -0.639931921803E+03   -0.81127E-05   -0.20011E-04  1010   0.220E-02    0.429E-02
RMM:   6    -0.639931894678E+03    0.27125E-04   -0.12512E-04   920   0.155E-02    0.126E-02
RMM:   7    -0.639931895493E+03   -0.81503E-06   -0.15878E-05   746   0.756E-03
  73 F= -.63992572E+03 E0= -.63980599E+03  d E =-.165070E-01  mag=     0.0000
       N       E                     dE             d eps       ncg     rms          rms(c)
RMM:   1    -0.639952104206E+03   -0.20210E-01   -0.45812E+00  1072   0.368E+00    0.496E-01
RMM:   2    -0.639959402418E+03   -0.72982E-02   -0.13952E-01  1210   0.443E-01    0.409E-01
RMM:   3    -0.639958724996E+03    0.67742E-03   -0.95996E-03  1148   0.179E-01    0.399E-01
RMM:   4    -0.639956609355E+03    0.21156E-02   -0.16095E-03  1072   0.708E-02    0.174E-01
RMM:   5    -0.639956544893E+03    0.64462E-04   -0.17343E-03  1074   0.641E-02    0.137E-01
RMM:   6    -0.639956269437E+03    0.27546E-03   -0.12437E-03  1098   0.478E-02    0.427E-02
RMM:   7    -0.639956265464E+03    0.39734E-05   -0.16817E-04   914   0.208E-02    0.271E-02
RMM:   8    -0.639956252264E+03    0.13199E-04   -0.23411E-05   786   0.846E-03    0.137E-02
RMM:   9    -0.639956252179E+03    0.85678E-07   -0.22143E-05   766   0.679E-03
  74 F= -.63994996E+03 E0= -.63982761E+03  d E =-.407378E-01  mag=     0.0000
       N       E                     dE             d eps       ncg     rms          rms(c)
RMM:   1    -0.639970356624E+03   -0.14104E-01   -0.52868E-01  1072   0.122E+00    0.156E-01
RMM:   2    -0.639971243190E+03   -0.88657E-03   -0.15882E-02  1204   0.145E-01    0.102E-01
RMM:   3    -0.639971139203E+03    0.10399E-03   -0.54651E-04  1110   0.443E-02    0.875E-02
RMM:   4    -0.639971066845E+03    0.72357E-04   -0.13488E-04   866   0.200E-02    0.620E-02
RMM:   5    -0.639971055303E+03    0.11543E-04   -0.20857E-04   942   0.212E-02    0.477E-02
RMM:   6    -0.639971030522E+03    0.24781E-04   -0.14460E-04   898   0.159E-02    0.130E-02
RMM:   7    -0.639971032389E+03   -0.18676E-05   -0.16429E-05   736   0.770E-03
  75 F= -.63996473E+03 E0= -.63984260E+03  d E =-.147727E-01  mag=     0.0000
       N       E                     dE             d eps       ncg     rms          rms(c)
RMM:   1    -0.639988890803E+03   -0.17860E-01   -0.47498E+00  1072   0.367E+00    0.471E-01
RMM:   2    -0.639996624019E+03   -0.77332E-02   -0.14292E-01  1204   0.435E-01    0.298E-01
RMM:   3    -0.639995467513E+03    0.11565E-02   -0.48294E-03  1122   0.133E-01    0.222E-01
RMM:   4    -0.639994991381E+03    0.47613E-03   -0.11883E-03  1072   0.593E-02    0.166E-01
RMM:   5    -0.639995038582E+03   -0.47201E-04   -0.17748E-03  1072   0.590E-02    0.172E-01
RMM:   6    -0.639994655682E+03    0.38290E-03   -0.10900E-03  1076   0.427E-02    0.469E-02
RMM:   7    -0.639994669950E+03   -0.14268E-04   -0.18030E-04   892   0.199E-02    0.284E-02
RMM:   8    -0.639994653371E+03    0.16579E-04   -0.28353E-05   796   0.853E-03    0.158E-02
RMM:   9    -0.639994650883E+03    0.24878E-05   -0.25153E-05   778   0.704E-03
  76 F= -.63998841E+03 E0= -.63986680E+03  d E =-.384552E-01  mag=     0.0000
       N       E                     dE             d eps       ncg     rms          rms(c)
RMM:   1    -0.639995324232E+03   -0.67086E-03   -0.29531E-01  1072   0.913E-01    0.116E-01
RMM:   2    -0.639995832316E+03   -0.50808E-03   -0.89136E-03  1204   0.108E-01    0.763E-02
RMM:   3    -0.639995774527E+03    0.57788E-04   -0.29830E-04  1076   0.328E-02    0.649E-02
RMM:   4    -0.639995735033E+03    0.39494E-04   -0.74018E-05   830   0.151E-02    0.464E-02
RMM:   5    -0.639995730659E+03    0.43747E-05   -0.11923E-04   862   0.162E-02    0.359E-02
RMM:   6    -0.639995717618E+03    0.13040E-04   -0.82091E-05   856   0.125E-02    0.100E-02
RMM:   7    -0.639995719097E+03   -0.14788E-05   -0.86000E-06   670   0.626E-03
  77 F= -.63998951E+03 E0= -.63986804E+03  d E =-.395550E-01  mag=     0.0000
       N       E                     dE             d eps       ncg     rms          rms(c)
RMM:   1    -0.640007633495E+03   -0.11916E-01   -0.14077E+00  1072   0.192E+00    0.247E-01
RMM:   2    -0.640010712707E+03   -0.30792E-02   -0.46928E-02  1208   0.239E-01    0.178E-01
RMM:   3    -0.640010474120E+03    0.23859E-03   -0.16981E-03  1148   0.771E-02    0.162E-01
RMM:   4    -0.640010172909E+03    0.30121E-03   -0.30601E-04   922   0.299E-02    0.966E-02
RMM:   5    -0.640010144107E+03    0.28802E-04   -0.47978E-04  1032   0.298E-02    0.756E-02
RMM:   6    -0.640010087219E+03    0.56888E-04   -0.51441E-04  1070   0.271E-02    0.243E-02
RMM:   7    -0.640010086879E+03    0.34018E-06   -0.54271E-05   848   0.114E-02
  78 F= -.64000386E+03 E0= -.63988165E+03  d E =-.143496E-01  mag=     0.0000
       N       E                     dE             d eps       ncg     rms          rms(c)
RMM:   1    -0.640011327185E+03   -0.12400E-02   -0.59116E+00  1072   0.394E+00    0.511E-01
RMM:   2    -0.640024708255E+03   -0.13381E-01   -0.19903E-01  1208   0.496E-01    0.417E-01
RMM:   3    -0.640023626233E+03    0.10820E-02   -0.91775E-03  1166   0.178E-01    0.382E-01
RMM:   4    -0.640021875489E+03    0.17507E-02   -0.14578E-03  1072   0.657E-02    0.200E-01
RMM:   5    -0.640021679760E+03    0.19573E-03   -0.16951E-03  1070   0.571E-02    0.154E-01
RMM:   6    -0.640021431225E+03    0.24854E-03   -0.22846E-03  1094   0.578E-02    0.539E-02
RMM:   7    -0.640021425563E+03    0.56616E-05   -0.30908E-04   950   0.252E-02    0.352E-02
RMM:   8    -0.640021398725E+03    0.26838E-04   -0.35471E-05   810   0.962E-03    0.218E-02
RMM:   9    -0.640021391356E+03    0.73697E-05   -0.50419E-05   820   0.924E-03
  79 F= -.64001508E+03 E0= -.63989160E+03  d E =-.255667E-01  mag=     0.0000
       N       E                     dE             d eps       ncg     rms          rms(c)
RMM:   1    -0.640032079348E+03   -0.10681E-01   -0.20903E+00  1074   0.230E+00    0.285E-01
RMM:   2    -0.640037273557E+03   -0.51942E-02   -0.71695E-02  1214   0.288E-01    0.215E-01
RMM:   3    -0.640036783640E+03    0.48992E-03   -0.22011E-03  1164   0.902E-02    0.175E-01
RMM:   4    -0.640036464665E+03    0.31897E-03   -0.37167E-04   936   0.323E-02    0.119E-01
[...]
RMM:   4    -0.640268648151E+03    0.70220E-05   -0.11159E-05   698   0.658E-03
 203 F= -.64026192E+03 E0= -.64013831E+03  d E =-.259214E-03  mag=     0.0000
       N       E                     dE             d eps       ncg     rms          rms(c)
RMM:   1    -0.640267507301E+03    0.11479E-02   -0.53781E-01  1072   0.108E+00    0.142E-01
RMM:   2    -0.640269133362E+03   -0.16261E-02   -0.20795E-02  1236   0.148E-01    0.113E-01
RMM:   3    -0.640268967400E+03    0.16596E-03   -0.50696E-04  1096   0.427E-02    0.813E-02
RMM:   4    -0.640268903441E+03    0.63959E-04   -0.89439E-05   832   0.155E-02    0.611E-02
RMM:   5    -0.640268900687E+03    0.27549E-05   -0.28041E-04   912   0.200E-02    0.590E-02
RMM:   6    -0.640268861353E+03    0.39333E-04   -0.21325E-04   900   0.170E-02    0.146E-02
RMM:   7    -0.640268868118E+03   -0.67646E-05   -0.17646E-05   734   0.758E-03
 204 F= -.64026214E+03 E0= -.64013848E+03  d E =-.482533E-03  mag=     0.0000
       N       E                     dE             d eps       ncg     rms          rms(c)
RMM:   1    -0.640268958734E+03   -0.97381E-04   -0.93839E-02  1072   0.448E-01    0.639E-02
RMM:   2    -0.640269262400E+03   -0.30367E-03   -0.39773E-03  1240   0.641E-02    0.466E-02
RMM:   3    -0.640269236082E+03    0.26319E-04   -0.94781E-05   866   0.182E-02    0.346E-02
RMM:   4    -0.640269224834E+03    0.11247E-04   -0.15945E-05   728   0.741E-03    0.249E-02
RMM:   5    -0.640269223577E+03    0.12576E-05   -0.27424E-05   740   0.703E-03
 205 F= -.64026250E+03 E0= -.64013922E+03  d E =-.354510E-03  mag=     0.0000
       N       E                     dE             d eps       ncg     rms          rms(c)
RMM:   1    -0.640267631959E+03    0.15929E-02   -0.84813E-01  1072   0.135E+00    0.177E-01
RMM:   2    -0.640270312408E+03   -0.26804E-02   -0.33583E-02  1238   0.186E-01    0.143E-01
RMM:   3    -0.640270035842E+03    0.27657E-03   -0.85450E-04  1124   0.548E-02    0.101E-01
RMM:   4    -0.640269936159E+03    0.99683E-04   -0.12812E-04   844   0.181E-02    0.746E-02
RMM:   5    -0.640269876317E+03    0.59842E-04   -0.82101E-04  1016   0.318E-02    0.264E-02
RMM:   6    -0.640269884211E+03   -0.78938E-05   -0.16018E-04   964   0.136E-02    0.218E-02
RMM:   7    -0.640269874105E+03    0.10106E-04   -0.90843E-06   662   0.582E-03    0.156E-02
RMM:   8    -0.640269870570E+03    0.35352E-05   -0.96785E-06   616   0.451E-03
 206 F= -.64026318E+03 E0= -.64013967E+03  d E =-.103204E-02  mag=     0.0000
       N       E                     dE             d eps       ncg     rms          rms(c)
RMM:   1    -0.640270228045E+03   -0.35394E-03   -0.26530E-02  1072   0.269E-01    0.391E-02
RMM:   2    -0.640270273302E+03   -0.45257E-04   -0.94509E-04  1210   0.346E-02    0.261E-02
RMM:   3    -0.640270264680E+03    0.86215E-05   -0.31153E-05   790   0.105E-02
 207 F= -.64026357E+03 E0= -.64014024E+03  d E =-.392794E-03  mag=     0.0000
       N       E                     dE             d eps       ncg     rms          rms(c)
RMM:   1    -0.640270352541E+03   -0.79239E-04   -0.44011E-02  1072   0.348E-01    0.517E-02
RMM:   2    -0.640270406187E+03   -0.53646E-04   -0.12902E-03  1208   0.416E-02    0.436E-02
RMM:   3    -0.640270397366E+03    0.88210E-05   -0.76534E-05   854   0.157E-02
 208 F= -.64026372E+03 E0= -.64013957E+03  d E =-.542541E-03  mag=     0.0000
       N       E                     dE             d eps       ncg     rms          rms(c)
RMM:   1    -0.640270554559E+03   -0.14837E-03   -0.35071E-02  1072   0.303E-01    0.413E-02
RMM:   2    -0.640270642978E+03   -0.88419E-04   -0.10650E-03  1208   0.365E-02    0.516E-02
RMM:   3    -0.640270611694E+03    0.31285E-04   -0.71617E-05   826   0.144E-02    0.327E-02
RMM:   4    -0.640270604697E+03    0.69970E-05   -0.10981E-05   708   0.646E-03
 209 F= -.64026392E+03 E0= -.64014034E+03  d E =-.202861E-03  mag=     0.0000
       N       E                     dE             d eps       ncg     rms          rms(c)
RMM:   1    -0.640270587776E+03    0.23918E-04   -0.50014E-02  1072   0.362E-01    0.489E-02
RMM:   2    -0.640270690063E+03   -0.10229E-03   -0.15675E-03  1214   0.443E-02    0.446E-02
RMM:   3    -0.640270679048E+03    0.11015E-04   -0.76857E-05   850   0.157E-02    0.400E-02
RMM:   4    -0.640270660493E+03    0.18555E-04   -0.14467E-05   738   0.766E-03    0.203E-02
RMM:   5    -0.640270664110E+03   -0.36167E-05   -0.40600E-05   780   0.888E-03
 210 F= -.64026398E+03 E0= -.64014068E+03  d E =-.262949E-03  mag=     0.0000
       N       E                     dE             d eps       ncg     rms          rms(c)
RMM:   1    -0.640270883775E+03   -0.22328E-03   -0.34357E-02  1072   0.296E-01    0.450E-02
RMM:   2    -0.640270960702E+03   -0.76927E-04   -0.12405E-03  1218   0.394E-02    0.420E-02
RMM:   3    -0.640270947697E+03    0.13004E-04   -0.82292E-05   830   0.157E-02    0.346E-02
RMM:   4    -0.640270932489E+03    0.15208E-04   -0.12256E-05   716   0.707E-03    0.161E-02
RMM:   5    -0.640270933374E+03   -0.88460E-06   -0.11281E-05   686   0.616E-03
 211 F= -.64026426E+03 E0= -.64014113E+03  d E =-.280890E-03  mag=     0.0000
       N       E                     dE             d eps       ncg     rms          rms(c)
RMM:   1    -0.640270960196E+03   -0.27707E-04   -0.19620E-02  1072   0.223E-01    0.337E-02
RMM:   2    -0.640271001397E+03   -0.41201E-04   -0.67411E-04  1198   0.284E-02    0.316E-02
RMM:   3    -0.640270994167E+03    0.72301E-05   -0.46137E-05   804   0.119E-02
 212 F= -.64026432E+03 E0= -.64014163E+03  d E =-.343458E-03  mag=     0.0000
       N       E                     dE             d eps       ncg     rms          rms(c)
RMM:   1    -0.640271233108E+03   -0.23171E-03   -0.39951E-02  1074   0.319E-01    0.433E-02
RMM:   2    -0.640271312573E+03   -0.79465E-04   -0.13164E-03  1214   0.404E-02    0.377E-02
RMM:   3    -0.640271295173E+03    0.17400E-04   -0.58651E-05   818   0.144E-02    0.259E-02
RMM:   4    -0.640271287956E+03    0.72169E-05   -0.11943E-05   716   0.703E-03
 213 F= -.64026463E+03 E0= -.64014151E+03  d E =-.306157E-03  mag=     0.0000
       N       E                     dE             d eps       ncg     rms          rms(c)
RMM:   1    -0.640271300110E+03   -0.49369E-05   -0.30889E-02  1072   0.282E-01    0.426E-02
RMM:   2    -0.640271357901E+03   -0.57791E-04   -0.10157E-03  1218   0.356E-02    0.409E-02
RMM:   3    -0.640271347823E+03    0.10079E-04   -0.69299E-05   814   0.150E-02    0.343E-02
RMM:   4    -0.640271332501E+03    0.15321E-04   -0.11383E-05   720   0.743E-03    0.148E-02
RMM:   5    -0.640271334598E+03   -0.20964E-05   -0.13191E-05   704   0.611E-03
 214 F= -.64026468E+03 E0= -.64014137E+03  d E =-.359383E-03  mag=     0.0000
       N       E                     dE             d eps       ncg     rms          rms(c)
RMM:   1    -0.640271431692E+03   -0.99191E-04   -0.51823E-02  1072   0.346E-01    0.466E-02
RMM:   2    -0.640271566272E+03   -0.13458E-03   -0.19415E-03  1224   0.460E-02    0.329E-02
RMM:   3    -0.640271553490E+03    0.12781E-04   -0.43582E-05   816   0.123E-02    0.245E-02
RMM:   4    -0.640271548753E+03    0.47376E-05   -0.10269E-05   686   0.613E-03
 215 F= -.64026490E+03 E0= -.64014146E+03  d E =-.215802E-03  mag=     0.0000
       N       E                     dE             d eps       ncg     rms          rms(c)
RMM:   1    -0.640271382133E+03    0.17136E-03   -0.11045E-01  1072   0.505E-01    0.655E-02
RMM:   2    -0.640271689175E+03   -0.30704E-03   -0.39688E-03  1226   0.664E-02    0.654E-02
RMM:   3    -0.640271656180E+03    0.32995E-04   -0.14740E-04   894   0.214E-02    0.547E-02
RMM:   4    -0.640271623731E+03    0.32449E-04   -0.24749E-05   784   0.923E-03    0.307E-02
RMM:   5    -0.640271619806E+03    0.39253E-05   -0.10263E-04   856   0.125E-02    0.169E-02
RMM:   6    -0.640271618617E+03    0.11892E-05   -0.33695E-05   766   0.757E-03
 216 F= -.64026496E+03 E0= -.64014156E+03  d E =-.273694E-03  mag=     0.0000
       N       E                     dE             d eps       ncg     rms          rms(c)
RMM:   1    -0.640271763959E+03   -0.14415E-03   -0.35138E-02  1072   0.279E-01    0.415E-02
RMM:   2    -0.640271868775E+03   -0.10482E-03   -0.14531E-03  1214   0.393E-02    0.343E-02
RMM:   3    -0.640271862412E+03    0.63628E-05   -0.56857E-05   814   0.133E-02
 217 F= -.64026520E+03 E0= -.64014232E+03  d E =-.239610E-03  mag=     0.0000
       N       E                     dE             d eps       ncg     rms          rms(c)
RMM:   1    -0.640271592305E+03    0.27647E-03   -0.20630E-01  1072   0.674E-01    0.855E-02
RMM:   2    -0.640272195978E+03   -0.60367E-03   -0.76857E-03  1226   0.911E-02    0.818E-02
RMM:   3    -0.640272124489E+03    0.71489E-04   -0.23636E-04   960   0.280E-02    0.626E-02
RMM:   4    -0.640272090504E+03    0.33985E-04   -0.39527E-05   798   0.107E-02    0.455E-02
RMM:   5    -0.640272083250E+03    0.72534E-05   -0.86415E-05   844   0.125E-02
 218 F= -.64026543E+03 E0= -.64014263E+03  d E =-.474348E-03  mag=     0.0000
       N       E                     dE             d eps       ncg     rms          rms(c)
RMM:   1    -0.640272287211E+03   -0.19671E-03   -0.59630E-02  1072   0.371E-01    0.533E-02
RMM:   2    -0.640272422457E+03   -0.13525E-03   -0.20965E-03  1226   0.477E-02    0.364E-02
RMM:   3    -0.640272413817E+03    0.86398E-05   -0.69043E-05   840   0.150E-02
 219 F= -.64026577E+03 E0= -.64014297E+03  d E =-.334700E-03  mag=     0.0000
       N       E                     dE             d eps       ncg     rms          rms(c)
RMM:   1    -0.640272319275E+03    0.10318E-03   -0.13540E-01  1072   0.555E-01    0.708E-02
RMM:   2    -0.640272688450E+03   -0.36918E-03   -0.48768E-03  1226   0.736E-02    0.649E-02
RMM:   3    -0.640272636549E+03    0.51901E-04   -0.13726E-04   912   0.223E-02    0.454E-02
RMM:   4    -0.640272619956E+03    0.16593E-04   -0.32366E-05   794   0.965E-03    0.355E-02
RMM:   5    -0.640272614937E+03    0.50190E-05   -0.17291E-04   898   0.159E-02    0.209E-02
RMM:   6    -0.640272610482E+03    0.44550E-05   -0.28551E-05   768   0.710E-03
 220 F= -.64026597E+03 E0= -.64014295E+03  d E =-.543140E-03  mag=     0.0000
       N       E                     dE             d eps       ncg     rms          rms(c)
RMM:   1    -0.640272741722E+03   -0.12678E-03   -0.86383E-02  1072   0.449E-01    0.638E-02
RMM:   2    -0.640272979126E+03   -0.23740E-03   -0.34507E-03  1228   0.617E-02    0.460E-02
RMM:   3    -0.640272956097E+03    0.23029E-04   -0.99245E-05   878   0.186E-02    0.338E-02
RMM:   4    -0.640272943567E+03    0.12530E-04   -0.18893E-05   756   0.812E-03    0.241E-02
RMM:   5    -0.640272946146E+03   -0.25785E-05   -0.36801E-05   766   0.836E-03
 221 F= -.64026632E+03 E0= -.64014278E+03  d E =-.342043E-03  mag=     0.0000
       N       E                     dE             d eps       ncg     rms          rms(c)
RMM:   1    -0.640272812591E+03    0.13098E-03   -0.84064E-02  1072   0.444E-01    0.610E-02
RMM:   2    -0.640273028526E+03   -0.21594E-03   -0.31226E-03  1228   0.587E-02    0.450E-02
RMM:   3    -0.640273005677E+03    0.22850E-04   -0.93288E-05   872   0.179E-02    0.325E-02
RMM:   4    -0.640272994661E+03    0.11016E-04   -0.18010E-05   760   0.802E-03    0.225E-02
RMM:   5    -0.640272995279E+03   -0.61805E-06   -0.60426E-05   822   0.979E-03
 222 F= -.64026634E+03 E0= -.64014349E+03  d E =-.367783E-03  mag=     0.0000
       N       E                     dE             d eps       ncg     rms          rms(c)
RMM:   1    -0.640272949064E+03    0.45596E-04   -0.89823E-02  1072   0.437E-01    0.600E-02
RMM:   2    -0.640273225283E+03   -0.27622E-03   -0.36323E-03  1240   0.607E-02    0.450E-02
RMM:   3    -0.640273200826E+03    0.24457E-04   -0.80377E-05   850   0.168E-02    0.324E-02
RMM:   4    -0.640273191583E+03    0.92422E-05   -0.15172E-05   724   0.722E-03
 223 F= -.64026655E+03 E0= -.64014337E+03  d E =-.203809E-03  mag=     0.0000
       N       E                     dE             d eps       ncg     rms          rms(c)
RMM:   1    -0.640271792485E+03    0.14083E-02   -0.58335E-01  1072   0.111E+00    0.143E-01
RMM:   2    -0.640273671254E+03   -0.18788E-02   -0.22842E-02  1238   0.153E-01    0.139E-01
RMM:   3    -0.640273475012E+03    0.19624E-03   -0.71755E-04  1084   0.471E-02    0.109E-01
RMM:   4    -0.640273356773E+03    0.11824E-03   -0.10411E-04   834   0.167E-02    0.706E-02
RMM:   5    -0.640273331469E+03    0.25304E-04   -0.15583E-04   870   0.160E-02    0.590E-02
RMM:   6    -0.640273299568E+03    0.31901E-04   -0.45734E-04   963   0.242E-02    0.146E-02
RMM:   7    -0.640273303323E+03   -0.37545E-05   -0.43325E-05   794   0.102E-02
 224 F= -.64026665E+03 E0= -.64014379E+03  d E =-.311514E-03  mag=     0.0000
       N       E                     dE             d eps       ncg     rms          rms(c)
RMM:   1    -0.640273381986E+03   -0.82418E-04   -0.31114E-02  1072   0.254E-01    0.406E-02
RMM:   2    -0.640273483964E+03   -0.10198E-03   -0.14275E-03  1196   0.378E-02    0.256E-02
RMM:   3    -0.640273477822E+03    0.61420E-05   -0.33244E-05   786   0.108E-02
 225 F= -.64026683E+03 E0= -.64014399E+03  d E =-.175214E-03  mag=     0.0000
       N       E                     dE             d eps       ncg     rms          rms(c)
RMM:   1    -0.640273143271E+03    0.34069E-03   -0.28300E-01  1072   0.765E-01    0.927E-02
RMM:   2    -0.640274071368E+03   -0.92810E-03   -0.11036E-02  1240   0.106E-01    0.873E-02
RMM:   3    -0.640273973427E+03    0.97941E-04   -0.23563E-04   962   0.294E-02    0.620E-02
RMM:   4    -0.640273944931E+03    0.28496E-04   -0.42088E-05   800   0.105E-02    0.507E-02
RMM:   5    -0.640273937713E+03    0.72179E-05   -0.19757E-04   906   0.163E-02    0.454E-02
RMM:   6    -0.640273917783E+03    0.19930E-04   -0.15107E-04   892   0.138E-02    0.132E-02
RMM:   7    -0.640273920590E+03   -0.28070E-05   -0.86420E-06   658   0.579E-03
 226 F= -.64026727E+03 E0= -.64014430E+03  d E =-.616512E-03  mag=     0.0000
       N       E                     dE             d eps       ncg     rms          rms(c)
RMM:   1    -0.640271135249E+03    0.27825E-02   -0.11308E+00  1072   0.153E+00    0.200E-01
RMM:   2    -0.640274996196E+03   -0.38609E-02   -0.46949E-02  1242   0.218E-01    0.174E-01
RMM:   3    -0.640274592880E+03    0.40332E-03   -0.11716E-03  1126   0.639E-02    0.122E-01
RMM:   4    -0.640274455559E+03    0.13732E-03   -0.16879E-04   866   0.202E-02    0.929E-02
RMM:   5    -0.640274416968E+03    0.38591E-04   -0.33476E-04   920   0.215E-02    0.837E-02
RMM:   6    -0.640274340322E+03    0.76646E-04   -0.72044E-04   988   0.297E-02    0.205E-02
RMM:   7    -0.640274352756E+03   -0.12434E-04   -0.76923E-05   882   0.125E-02    0.214E-02
RMM:   8    -0.640274341652E+03    0.11104E-04   -0.11829E-05   682   0.568E-03    0.133E-02
RMM:   9    -0.640274338473E+03    0.31793E-05   -0.17711E-05   668   0.509E-03
 227 F= -.64026768E+03 E0= -.64014466E+03  d E =-.102162E-02  mag=     0.0000
       N       E                     dE             d eps       ncg     rms          rms(c)
RMM:   1    -0.640274616486E+03   -0.27483E-03   -0.55231E-02  1072   0.355E-01    0.474E-02
RMM:   2    -0.640274780724E+03   -0.16424E-03   -0.22235E-03  1234   0.490E-02    0.389E-02
RMM:   3    -0.640274763979E+03    0.16745E-04   -0.56101E-05   826   0.143E-02    0.296E-02
RMM:   4    -0.640274754618E+03    0.93604E-05   -0.10808E-05   686   0.645E-03
 228 F= -.64026808E+03 E0= -.64014507E+03  d E =-.405994E-03  mag=     0.0000
       N       E                     dE             d eps       ncg     rms          rms(c)
RMM:   1    -0.640274007362E+03    0.75662E-03   -0.49417E-01  1072   0.107E+00    0.138E-01
RMM:   2    -0.640275431245E+03   -0.14239E-02   -0.18395E-02  1226   0.143E-01    0.133E-01
RMM:   3    -0.640275284922E+03    0.14632E-03   -0.63403E-04  1120   0.459E-02    0.110E-01
RMM:   4    -0.640275140216E+03    0.14471E-03   -0.10594E-04   832   0.174E-02    0.665E-02
RMM:   5    -0.640275124643E+03    0.15574E-04   -0.28315E-04   956   0.217E-02    0.530E-02
RMM:   6    -0.640275094302E+03    0.30341E-04   -0.28633E-04   964   0.196E-02    0.133E-02
RMM:   7    -0.640275095842E+03   -0.15398E-05   -0.17163E-05   710   0.780E-03
 229 F= -.64026840E+03 E0= -.64014475E+03  d E =-.722928E-03  mag=     0.0000
       N       E                     dE             d eps       ncg     rms          rms(c)
RMM:   1    -0.640275701747E+03   -0.60745E-03   -0.24894E-02  1076   0.281E-01    0.669E-02
RMM:   2    -0.640275624281E+03    0.77466E-04   -0.57500E-04  1166   0.334E-02    0.616E-02
RMM:   3    -0.640275598675E+03    0.25606E-04   -0.15171E-04   880   0.207E-02    0.551E-02
RMM:   4    -0.640275549941E+03    0.48734E-04   -0.62757E-05   964   0.137E-02    0.134E-02
RMM:   5    -0.640275553608E+03   -0.36671E-05   -0.14110E-05   686   0.796E-03
 230 F= -.64026887E+03 E0= -.64014578E+03  d E =-.470495E-03  mag=     0.0000
       N       E                     dE             d eps       ncg     rms          rms(c)
RMM:   1    -0.640275558286E+03   -0.83454E-05   -0.17667E-04  1038   0.244E-02    0.587E-03
RMM:   2    -0.640275558067E+03    0.21869E-06   -0.52164E-06   636   0.517E-03
 231 F= -.64026887E+03 E0= -.64014577E+03  d E =-.472674E-03  mag=     0.0000
       N       E                     dE             d eps       ncg     rms          rms(c)
RMM:   1    -0.640275649940E+03   -0.91654E-04   -0.38088E-03  1072   0.101E-01    0.140E-02
RMM:   2    -0.640275657165E+03   -0.72249E-05   -0.12906E-04   960   0.130E-02    0.984E-03
RMM:   3    -0.640275656730E+03    0.43453E-06   -0.56482E-06   636   0.519E-03
 232 F= -.64026898E+03 E0= -.64014570E+03  d E =-.104142E-03  mag=     0.0000
       N       E                     dE             d eps       ncg     rms          rms(c)
RMM:   1    -0.640275732665E+03   -0.75500E-04   -0.23085E-02  1072   0.249E-01    0.334E-02
RMM:   2    -0.640275782177E+03   -0.49512E-04   -0.77849E-04  1222   0.322E-02    0.289E-02
RMM:   3    -0.640275774546E+03    0.76309E-05   -0.34171E-05   794   0.110E-02
 233 F= -.64026909E+03 E0= -.64014625E+03  d E =-.215992E-03  mag=     0.0000
       N       E                     dE             d eps       ncg     rms          rms(c)
RMM:   1    -0.640275851549E+03   -0.69371E-04   -0.47814E-03  1070   0.106E-01    0.155E-02
RMM:   2    -0.640275863387E+03   -0.11838E-04   -0.13130E-04   946   0.134E-02    0.182E-02
RMM:   3    -0.640275859916E+03    0.34712E-05   -0.73113E-06   654   0.571E-03
 234 F= -.64026918E+03 E0= -.64014591E+03  d E =-.949016E-04  mag=     0.0000
       N       E                     dE             d eps       ncg     rms          rms(c)
RMM:   1    -0.640275916464E+03   -0.53077E-04   -0.42820E-02  1072   0.317E-01    0.411E-02
RMM:   2    -0.640276034238E+03   -0.11777E-03   -0.15391E-03  1224   0.421E-02    0.414E-02
RMM:   3    -0.640276016857E+03    0.17382E-04   -0.56043E-05   826   0.138E-02    0.331E-02
RMM:   4    -0.640276005635E+03    0.11221E-04   -0.96818E-06   698   0.618E-03    0.214E-02
RMM:   5    -0.640276003333E+03    0.23026E-05   -0.26802E-05   746   0.741E-03
 235 F= -.64026933E+03 E0= -.64014630E+03  d E =-.237852E-03  mag=     0.0000
       N       E                     dE             d eps       ncg     rms          rms(c)
RMM:   1    -0.640276096794E+03   -0.91158E-04   -0.43316E-03  1072   0.117E-01    0.206E-02
RMM:   2    -0.640276092796E+03    0.39978E-05   -0.98003E-05  1004   0.139E-02
 236 F= -.64026942E+03 E0= -.64014628E+03  d E =-.946278E-04  mag=     0.0000
       N       E                     dE             d eps       ncg     rms          rms(c)
RMM:   1    -0.640276101448E+03   -0.46542E-05   -0.76398E-04  1068   0.490E-02    0.158E-02
RMM:   2    -0.640276108001E+03   -0.65535E-05   -0.34343E-05   794   0.843E-03
 237 F= -.64026944E+03 E0= -.64014597E+03  d E =-.119051E-03  mag=     0.0000
