 vasp.5.4.4.18Apr17-6-g9f103f2a35 (build Aug 02 2018 17:23:03) complex          
  
 executed on  paragrid2-intel-MKL date 2019.02.24  11:29:38
 running on   40 total cores
 distrk:  each k-point on   40 cores,    1 groups
 distr:  one band on NCORES_PER_BAND=   5 cores,    8 groups


--------------------------------------------------------------------------------------------------------


 INCAR:
 POTCAR:    PAW_PBE C 08Apr2002                   
 POTCAR:    PAW_PBE N 08Apr2002                   
 POTCAR:    PAW_PBE O 08Apr2002                   
 POTCAR:    PAW_PBE Pd 04Jan2005                  
 POTCAR:    PAW_PBE C 08Apr2002                   
   VRHFIN =C: s2p2                                                              
   LEXCH  = PE                                                                  
   EATOM  =   147.1560 eV,   10.8157 Ry                                         
                                                                                
   TITEL  = PAW_PBE C 08Apr2002                                                 
   LULTRA =        F    use ultrasoft PP ?                                      
   IUNSCR =        1    unscreen: 0-lin 1-nonlin 2-no                           
   RPACOR =    1.200    partial core radius                                     
   POMASS =   12.011; ZVAL   =    4.000    mass and valenz                      
   RCORE  =    1.500    outmost cutoff radius                                   
   RWIGS  =    1.630; RWIGS  =    0.863    wigner-seitz radius (au A)           
   ENMAX  =  400.000; ENMIN  =  300.000 eV                                      
   ICORE  =        2    local potential                                         
   LCOR   =        T    correct aug charges                                     
   LPAW   =        T    paw PP                                                  
   EAUG   =  644.873                                                            
   DEXC   =    0.000                                                            
   RMAX   =    1.529    core radius for proj-oper                               
   RAUG   =    1.300    factor for augmentation sphere                          
   RDEP   =    1.501    radius for radial grids                                 
   RDEPT  =    1.300    core radius for aug-charge                              
                                                                                
   Atomic configuration                                                         
    4 entries                                                                   
     n  l   j            E        occ.                                          
     1  0  0.50      -273.3789   2.0000                                         
     2  0  0.50       -13.7508   2.0000                                         
     2  1  0.50        -5.2854   2.0000                                         
     3  2  1.50        -5.4423   0.0000                                         
   Description                                                                  
     l       E           TYP  RCUT    TYP  RCUT                                 
     0    -13.7508458     23  1.200                                             
     0     -8.2022199     23  1.200                                             
     1     -5.2854383     23  1.500                                             
     1     34.0145650     23  1.500                                             
     2     -5.4423304      7  1.500                                             
  local pseudopotential read in
  partial core-charges read in
  partial kinetic energy density read in
  atomic valenz-charges read in
  non local Contribution for L=           0  read in
    real space projection operators read in
  non local Contribution for L=           0  read in
    real space projection operators read in
  non local Contribution for L=           1  read in
    real space projection operators read in
  non local Contribution for L=           1  read in
    real space projection operators read in
    PAW grid and wavefunctions read in
 
   number of l-projection  operators is LMAX  =           4
   number of lm-projection operators is LMMAX =           8
 
 POTCAR:    PAW_PBE N 08Apr2002                   
   VRHFIN =N: s2p3                                                              
   LEXCH  = PE                                                                  
   EATOM  =   264.5486 eV,   19.4438 Ry                                         
                                                                                
   TITEL  = PAW_PBE N 08Apr2002                                                 
   LULTRA =        F    use ultrasoft PP ?                                      
   IUNSCR =        1    unscreen: 0-lin 1-nonlin 2-no                           
   RPACOR =    1.200    partial core radius                                     
   POMASS =   14.001; ZVAL   =    5.000    mass and valenz                      
   RCORE  =    1.500    outmost cutoff radius                                   
   RWIGS  =    1.400; RWIGS  =    0.741    wigner-seitz radius (au A)           
   ENMAX  =  400.000; ENMIN  =  300.000 eV                                      
   ICORE  =        2    local potential                                         
   LCOR   =        T    correct aug charges                                     
   LPAW   =        T    paw PP                                                  
   EAUG   =  627.112                                                            
   DEXC   =    0.000                                                            
   RMAX   =    1.529    core radius for proj-oper                               
   RAUG   =    1.300    factor for augmentation sphere                          
   RDEP   =    1.514    radius for radial grids                                 
   RDEPT  =    1.338    core radius for aug-charge                              
                                                                                
   Atomic configuration                                                         
    4 entries                                                                   
     n  l   j            E        occ.                                          
     1  0  0.50      -384.7179   2.0000                                         
     2  0  0.50       -18.5828   2.0000                                         
     2  1  0.50        -7.0898   3.0000                                         
     3  2  1.50        -6.8029   0.0000                                         
   Description                                                                  
     l       E           TYP  RCUT    TYP  RCUT                                 
     0    -18.5828119     23  1.200                                             
     0    -13.5018863     23  1.200                                             
     1     -7.0897853     23  1.500                                             
     1      9.5240782     23  1.500                                             
     2     -6.8029130      7  1.500                                             
  local pseudopotential read in
  partial core-charges read in
  partial kinetic energy density read in
  atomic valenz-charges read in
  non local Contribution for L=           0  read in
    real space projection operators read in
  non local Contribution for L=           0  read in
    real space projection operators read in
  non local Contribution for L=           1  read in
    real space projection operators read in
  non local Contribution for L=           1  read in
    real space projection operators read in
    PAW grid and wavefunctions read in
 
   number of l-projection  operators is LMAX  =           4
   number of lm-projection operators is LMMAX =           8
 
 POTCAR:    PAW_PBE O 08Apr2002                   
   VRHFIN =O: s2p4                                                              
   LEXCH  = PE                                                                  
   EATOM  =   432.3788 eV,   31.7789 Ry                                         
                                                                                
   TITEL  = PAW_PBE O 08Apr2002                                                 
   LULTRA =        F    use ultrasoft PP ?                                      
   IUNSCR =        1    unscreen: 0-lin 1-nonlin 2-no                           
   RPACOR =    1.200    partial core radius                                     
   POMASS =   16.000; ZVAL   =    6.000    mass and valenz                      
   RCORE  =    1.520    outmost cutoff radius                                   
   RWIGS  =    1.550; RWIGS  =    0.820    wigner-seitz radius (au A)           
   ENMAX  =  400.000; ENMIN  =  300.000 eV                                      
   ICORE  =        2    local potential                                         
   LCOR   =        T    correct aug charges                                     
   LPAW   =        T    paw PP                                                  
   EAUG   =  605.392                                                            
   DEXC   =    0.000                                                            
   RMAX   =    1.553    core radius for proj-oper                               
   RAUG   =    1.300    factor for augmentation sphere                          
   RDEP   =    1.550    radius for radial grids                                 
   RDEPT  =    1.329    core radius for aug-charge                              
                                                                                
   Atomic configuration                                                         
    4 entries                                                                   
     n  l   j            E        occ.                                          
     1  0  0.50      -514.6923   2.0000                                         
     2  0  0.50       -23.9615   2.0000                                         
     2  1  0.50        -9.0305   4.0000                                         
     3  2  1.50        -9.5241   0.0000                                         
   Description                                                                  
     l       E           TYP  RCUT    TYP  RCUT                                 
     0    -23.9615318     23  1.200                                             
     0     -9.5240782     23  1.200                                             
     1     -9.0304911     23  1.520                                             
     1      8.1634956     23  1.520                                             
     2     -9.5240782      7  1.500                                             
  local pseudopotential read in
  partial core-charges read in
  partial kinetic energy density read in
  kinetic energy density of atom read in
  atomic valenz-charges read in
  non local Contribution for L=           0  read in
    real space projection operators read in
  non local Contribution for L=           0  read in
    real space projection operators read in
  non local Contribution for L=           1  read in
    real space projection operators read in
  non local Contribution for L=           1  read in
    real space projection operators read in
    PAW grid and wavefunctions read in
 
   number of l-projection  operators is LMAX  =           4
   number of lm-projection operators is LMMAX =           8
 
 POTCAR:    PAW_PBE Pd 04Jan2005                  
   VRHFIN =Pd : s1 d9                                                           
   LEXCH  = PE                                                                  
   EATOM  =   809.7530 eV,   59.5152 Ry                                         
                                                                                
   TITEL  = PAW_PBE Pd 04Jan2005                                                
   LULTRA =        F    use ultrasoft PP ?                                      
   IUNSCR =        1    unscreen: 0-lin 1-nonlin 2-no                           
   RPACOR =    2.000    partial core radius                                     
   POMASS =  106.420; ZVAL   =   10.000    mass and valenz                      
   RCORE  =    2.600    outmost cutoff radius                                   
   RWIGS  =    2.710; RWIGS  =    1.434    wigner-seitz radius (au A)           
   ENMAX  =  250.925; ENMIN  =  188.194 eV                                      
   ICORE  =        3    local potential                                         
   LCOR   =        T    correct aug charges                                     
   LPAW   =        T    paw PP                                                  
   EAUG   =  416.230                                                            
   DEXC   =    0.000                                                            
   RMAX   =    2.653    core radius for proj-oper                               
   RAUG   =    1.300    factor for augmentation sphere                          
   RDEP   =    2.734    radius for radial grids                                 
   RDEPT  =    2.103    core radius for aug-charge                              
                                                                                
   Atomic configuration                                                         
   12 entries                                                                   
     n  l   j            E        occ.                                          
     1  0  0.50    -24164.6631   2.0000                                         
     2  0  0.50     -3530.9218   2.0000                                         
     2  1  1.50     -3165.6822   6.0000                                         
     3  0  0.50      -639.4577   2.0000                                         
     3  1  1.50      -519.4532   6.0000                                         
     3  2  2.50      -328.9757  10.0000                                         
     4  0  0.50       -88.7014   2.0000                                         
     4  1  1.50       -54.4540   6.0000                                         
     4  2  2.50        -6.6878   9.0000                                         
     5  0  0.50        -4.3543   1.0000                                         
     5  1  0.50        -1.3606   0.0000                                         
     4  3  2.50        -1.3606   0.0000                                         
   Description                                                                  
     l       E           TYP  RCUT    TYP  RCUT                                 
     2     -6.6878251     23  2.400                                             
     2     -8.0484077     23  2.400                                             
     0     -4.3542939     23  2.400                                             
     0      4.3406793     23  2.400                                             
     1     -4.0817478     23  2.600                                             
     1     15.8380318     23  2.600                                             
     3     -4.0817478     23  2.400                                             
  local pseudopotential read in
  partial core-charges read in
  partial kinetic energy density read in
  atomic valenz-charges read in
  non local Contribution for L=           2  read in
    real space projection operators read in
  non local Contribution for L=           2  read in
    real space projection operators read in
  non local Contribution for L=           0  read in
    real space projection operators read in
  non local Contribution for L=           0  read in
    real space projection operators read in
  non local Contribution for L=           1  read in
    real space projection operators read in
  non local Contribution for L=           1  read in
    real space projection operators read in
    PAW grid and wavefunctions read in
 
   number of l-projection  operators is LMAX  =           6
   number of lm-projection operators is LMMAX =          18
 
 Optimization of the real space projectors (new method)

 maximal supplied QI-value         = 25.13
 optimisation between [QCUT,QGAM] = [ 10.05, 20.36] = [ 28.30,116.06] Ry 
 Optimized for a Real-space Cutoff    1.51 Angstroem

   l    n(q)    QCUT    max X(q) W(low)/X(q) W(high)/X(q)  e(spline) 
   0      9    10.053   115.676    0.19E-03    0.21E-03    0.38E-06
   0      9    10.053    87.132    0.19E-03    0.21E-03    0.38E-06
   1      9    10.053     4.429    0.87E-04    0.11E-03    0.39E-06
   1      9    10.053     2.733    0.59E-04    0.62E-04    0.43E-06
 Optimization of the real space projectors (new method)

 maximal supplied QI-value         = 25.13
 optimisation between [QCUT,QGAM] = [ 10.05, 20.36] = [ 28.30,116.06] Ry 
 Optimized for a Real-space Cutoff    1.70 Angstroem

   l    n(q)    QCUT    max X(q) W(low)/X(q) W(high)/X(q)  e(spline) 
   0     10    10.053    79.467    0.61E-04    0.98E-04    0.61E-06
   0     10    10.053    66.151    0.60E-04    0.98E-04    0.61E-06
   1     10    10.053     8.350    0.17E-03    0.71E-03    0.45E-05
   1     10    10.053     5.531    0.18E-03    0.77E-03    0.49E-05
 Optimization of the real space projectors (new method)

 maximal supplied QI-value         = 24.76
 optimisation between [QCUT,QGAM] = [ 10.15, 20.30] = [ 28.85,115.39] Ry 
 Optimized for a Real-space Cutoff    1.51 Angstroem

   l    n(q)    QCUT    max X(q) W(low)/X(q) W(high)/X(q)  e(spline) 
   0      9    10.150    20.381    0.17E-03    0.18E-03    0.41E-06
   0      9    10.150    15.268    0.18E-03    0.20E-03    0.43E-06
   1      9    10.150     5.964    0.16E-03    0.20E-03    0.36E-06
   1      9    10.150     5.382    0.13E-03    0.16E-03    0.33E-06
 Optimization of the real space projectors (new method)

 maximal supplied QI-value         = 14.36
 optimisation between [QCUT,QGAM] = [ 10.20, 20.39] = [ 29.12,116.47] Ry 
 Optimized for a Real-space Cutoff    1.55 Angstroem

   l    n(q)    QCUT    max X(q) W(low)/X(q) W(high)/X(q)  e(spline) 
   2      9    10.197    59.108    0.12E-03    0.40E-04    0.11E-06
   2      9    10.197    58.101    0.12E-03    0.39E-04    0.12E-06
   0      9    10.197   102.235    0.41E-04    0.86E-05    0.83E-07
   0      9    10.197    58.388    0.37E-04    0.79E-05    0.78E-07
   1      9    10.197    22.191    0.25E-03    0.13E-03    0.84E-07
   1      9    10.197    15.590    0.21E-03    0.11E-03    0.74E-07
  PAW_PBE C 08Apr2002                   :
 energy of atom  1       EATOM= -147.1560
 kinetic energy error for atom=    0.0288 (will be added to EATOM!!)
  PAW_PBE N 08Apr2002                   :
 energy of atom  2       EATOM= -264.5486
 kinetic energy error for atom=    0.0736 (will be added to EATOM!!)
  PAW_PBE O 08Apr2002                   :
 energy of atom  3       EATOM= -432.3788
 kinetic energy error for atom=    0.1156 (will be added to EATOM!!)
  PAW_PBE Pd 04Jan2005                  :
 energy of atom  4       EATOM= -809.7530
 kinetic energy error for atom=    0.0091 (will be added to EATOM!!)
 
 
 POSCAR:  C  N  O Pd                             
  positions in cartesian coordinates
  No initial velocities read in
 exchange correlation table for  LEXCH =        8
   RHO(1)=    0.500       N(1)  =     2000
   RHO(2)=  100.500       N(2)  =     4000

 VTST: version 3.2, (02/03/18)

 CHAIN: initializing optimizer
 
 OPT: Using VASP Conjugate-Gradient optimizer
 CHAIN: Read ICHAIN            0
 
 POSCAR:  C  N  O Pd                             
  positions in cartesian coordinates
  No initial velocities read in
 


--------------------------------------------------------------------------------------------------------


 ion  position               nearest neighbor table
   1  0.052  0.341  0.440- 129 1.43   3 1.43   5 1.43
   2  0.053  0.676  0.579-  16 1.43  10 1.43 146 1.43
   3  0.052  0.323  0.485-   1 1.43   4 1.43  77 1.43
   4  0.152  0.319  0.508-  34 1.43   3 1.43   7 1.43
   5  0.152  0.355  0.420-  33 1.43  32 1.43   1 1.43
   6  0.053  0.323  0.579-   9 1.43   7 1.43 131 1.43
   7  0.153  0.319  0.556-   6 1.43   4 1.43  20 1.43
   8  0.050  0.408  0.691- 127 1.42  67 1.42  13 1.42
   9  0.053  0.342  0.624-  79 1.43   6 1.43  11 1.43
  10  0.153  0.681  0.556-   2 1.43  22 1.43  46 1.43
  11  0.153  0.356  0.643-  13 1.42  58 1.42   9 1.43
  12  0.144  0.476  0.713- 158 1.36  67 1.39  15 1.43 160 2.67
  13  0.151  0.390  0.676-  11 1.42   8 1.42  60 1.43
  14  0.048  0.548  0.709-  15 1.39 154 1.41  28 1.42
  15  0.144  0.524  0.713- 155 1.36  14 1.39  12 1.43 160 2.67
  16  0.053  0.658  0.624- 144 1.43   2 1.43  17 1.43
  17  0.153  0.643  0.643-  39 1.42  43 1.42  16 1.43
  18  0.352  0.319  0.556-  35 1.43  20 1.43  69 1.43
  19  0.152  0.476  0.350-  56 1.43  30 1.43  27 1.43
  20  0.253  0.325  0.579-  18 1.43  58 1.43   7 1.43
  21  0.452  0.656  0.623-  81 1.42 119 1.43  54 1.43
  22  0.152  0.681  0.508-  49 1.43  37 1.43  10 1.43
  23  0.052  0.592  0.373-  26 1.43  29 1.43 152 1.43
  24  0.052  0.659  0.440- 149 1.43  37 1.43  25 1.43
  25  0.152  0.645  0.420-  52 1.43  29 1.43  24 1.43
  26  0.052  0.547  0.355-  23 1.43  27 1.43 151 1.43
  27  0.152  0.524  0.350-  41 1.43  26 1.43  19 1.43
  28  0.050  0.591  0.691- 141 1.42  14 1.42  39 1.42
  29  0.152  0.611  0.386-  23 1.43  51 1.43  25 1.43
  30  0.052  0.453  0.355-  31 1.43 137 1.43  19 1.43
  31  0.052  0.408  0.373-  30 1.43  32 1.43  55 1.43
  32  0.152  0.388  0.386-  31 1.43  63 1.43   5 1.43
  33  0.252  0.341  0.440-  34 1.43   5 1.43  36 1.43
  34  0.252  0.323  0.484-  33 1.43  35 1.43   4 1.43
  35  0.352  0.319  0.508-  18 1.43  66 1.43  34 1.43
  36  0.352  0.354  0.420-  64 1.43  33 1.43  65 1.43
  37  0.052  0.677  0.485-  24 1.43  22 1.43 147 1.43
  38  0.852  0.408  0.373- 125 1.43  55 1.43 153 1.43
  39  0.151  0.609  0.676-  17 1.42  28 1.42  44 1.43
  40  0.455  0.587  0.688- 157 1.36  78 1.43  48 1.44
  41  0.252  0.547  0.355-  27 1.43  51 1.43  45 1.43
  42  0.352  0.394  0.676-  61 1.44  60 1.44  71 1.44
  43  0.253  0.656  0.623-  17 1.42  46 1.43  54 1.43
  44  0.249  0.587  0.688- 155 1.36  39 1.43  48 1.44
  45  0.352  0.524  0.350-  62 1.43  41 1.43  88 1.43
  46  0.253  0.675  0.579-  47 1.43  43 1.43  10 1.43
  47  0.352  0.680  0.556-  50 1.43 119 1.43  46 1.43
  48  0.352  0.606  0.676-  54 1.44  44 1.44  40 1.44
  49  0.252  0.677  0.484-  50 1.43  52 1.43  22 1.43
  50  0.352  0.681  0.508-  47 1.43  82 1.43  49 1.43
  51  0.252  0.592  0.373-  41 1.43  29 1.43  57 1.43
  52  0.252  0.659  0.440-  49 1.43  25 1.43  53 1.43
  53  0.352  0.645  0.420-  57 1.43  52 1.43  85 1.43
  54  0.352  0.641  0.642-  21 1.43  43 1.43  48 1.44
  55  0.952  0.388  0.386-  38 1.43 129 1.43  31 1.43
  56  0.252  0.453  0.355-  19 1.43  63 1.43  62 1.43
  57  0.352  0.611  0.386-  53 1.43  84 1.43  51 1.43
  58  0.253  0.344  0.623-  11 1.42  20 1.43  61 1.43
  59  0.560  0.524  0.713- 157 1.36 105 1.39  74 1.43 160 2.67
  60  0.249  0.413  0.688- 158 1.36  13 1.43  42 1.44
  61  0.352  0.359  0.642-  72 1.43  58 1.43  42 1.44
  62  0.352  0.476  0.350-  45 1.43  90 1.43  56 1.43
  63  0.252  0.408  0.373-  56 1.43  32 1.43  64 1.43
  64  0.352  0.388  0.386-  36 1.43  63 1.43  92 1.43
  65  0.452  0.341  0.440-  66 1.43  76 1.43  36 1.43
  66  0.452  0.323  0.484-  65 1.43  35 1.43  68 1.43
  67  0.048  0.452  0.709-  12 1.39 136 1.41   8 1.42
  68  0.552  0.319  0.508-  66 1.43 117 1.43  70 1.43
  69  0.452  0.325  0.579-  18 1.43  72 1.43  70 1.43
  70  0.552  0.319  0.556-  96 1.43  68 1.43  69 1.43
  71  0.455  0.413  0.688- 156 1.36  75 1.43  42 1.44
  72  0.452  0.344  0.623-  73 1.42  69 1.43  61 1.43
  73  0.552  0.356  0.643-  75 1.42  72 1.42 100 1.43
  74  0.560  0.476  0.713- 156 1.36 102 1.39  59 1.43 160 2.67
  75  0.553  0.390  0.676-  73 1.42  99 1.42  71 1.43
  76  0.552  0.355  0.420-  65 1.43  93 1.43  94 1.43
  77  0.952  0.318  0.508- 131 1.43   3 1.43 128 1.43
  78  0.553  0.609  0.676-  81 1.42 108 1.42  40 1.43
  79  0.952  0.354  0.644- 127 1.43   9 1.43 133 1.43
  80  0.552  0.681  0.556- 110 1.43  83 1.43 119 1.43
  81  0.552  0.643  0.643-  78 1.42  21 1.42  98 1.43
  82  0.452  0.677  0.484-  50 1.43  85 1.43  83 1.43
  83  0.552  0.681  0.508-  82 1.43 113 1.43  80 1.43
  84  0.452  0.592  0.373-  88 1.43  89 1.43  57 1.43
  85  0.452  0.659  0.440-  82 1.43  86 1.43  53 1.43
  86  0.552  0.645  0.420-  85 1.43  89 1.43 118 1.43
  87  0.752  0.355  0.420-  94 1.43 125 1.43 126 1.43
  88  0.452  0.547  0.355- 116 1.43  84 1.43  45 1.43
  89  0.552  0.611  0.386-  97 1.43  84 1.43  86 1.43
  90  0.452  0.453  0.355-  91 1.43  92 1.43  62 1.43
  91  0.552  0.476  0.350-  90 1.43 122 1.43 116 1.43
  92  0.452  0.408  0.373-  90 1.43  93 1.43  64 1.43
  93  0.552  0.388  0.386- 124 1.43  92 1.43  76 1.43
  94  0.652  0.341  0.440-  87 1.43 117 1.43  76 1.43
  95  0.752  0.318  0.508- 107 1.43 117 1.43 128 1.43
  96  0.652  0.323  0.579- 100 1.43  70 1.43 107 1.43
  97  0.652  0.592  0.373- 138 1.43  89 1.43 121 1.43
  98  0.652  0.658  0.624- 112 1.43 110 1.43  81 1.43
  99  0.654  0.408  0.691- 104 1.42 102 1.42  75 1.42
 100  0.652  0.342  0.624- 101 1.43  96 1.43  73 1.43
 101  0.752  0.354  0.644- 104 1.43 100 1.43 133 1.43
 102  0.657  0.452  0.709-  74 1.39 103 1.41  99 1.42
 103  0.755  0.476  0.714- 106 1.41 102 1.41 115 1.43
 104  0.753  0.388  0.678-  99 1.42 132 1.42 101 1.43
 105  0.657  0.548  0.709-  59 1.39 115 1.41 108 1.42
 106  0.852  0.452  0.710- 136 1.41 103 1.41 132 1.43
 107  0.752  0.318  0.556-  95 1.43 130 1.43  96 1.43
 108  0.654  0.591  0.691- 109 1.42 105 1.42  78 1.42
 109  0.753  0.612  0.678- 108 1.42 140 1.42 112 1.43
 110  0.652  0.676  0.579-  98 1.43  80 1.43 111 1.43
 111  0.752  0.682  0.556- 114 1.43 142 1.43 110 1.43
 112  0.752  0.646  0.644- 109 1.43  98 1.43 139 1.43
 113  0.652  0.677  0.485- 118 1.43  83 1.43 114 1.43
 114  0.752  0.681  0.508- 111 1.43 113 1.43 145 1.43
 115  0.755  0.524  0.714- 134 1.41 105 1.41 103 1.43
 116  0.552  0.524  0.350-  88 1.43 138 1.43  91 1.43
 117  0.652  0.323  0.485-  94 1.43  68 1.43  95 1.43
 118  0.652  0.659  0.440- 135 1.43 113 1.43  86 1.43
 119  0.452  0.675  0.579-  47 1.43  21 1.43  80 1.43
 120  0.752  0.524  0.350- 123 1.43 150 1.43 138 1.43
 121  0.752  0.611  0.386- 143 1.43 135 1.43  97 1.43
 122  0.652  0.453  0.355- 124 1.43 123 1.43  91 1.43
 123  0.752  0.476  0.350- 120 1.43 153 1.43 122 1.43
 124  0.652  0.408  0.373- 122 1.43  93 1.43 125 1.43
 125  0.752  0.388  0.386-  38 1.43  87 1.43 124 1.43
 126  0.852  0.341  0.440- 129 1.43  87 1.43 128 1.43
 127  0.952  0.388  0.678-   8 1.42 132 1.42  79 1.43
 128  0.852  0.323  0.485- 126 1.43  95 1.43  77 1.43
 129  0.952  0.355  0.420-   1 1.43  55 1.43 126 1.43
 130  0.852  0.323  0.579- 133 1.43 131 1.43 107 1.43
 131  0.952  0.318  0.556-  77 1.43 130 1.43   6 1.43
 132  0.852  0.408  0.692- 104 1.42 127 1.42 106 1.43
 133  0.852  0.341  0.624- 130 1.43 101 1.43  79 1.43
 134  0.852  0.548  0.710- 115 1.41 154 1.41 140 1.43
 135  0.752  0.645  0.420- 118 1.43 121 1.43 148 1.43
 136  0.950  0.476  0.714- 106 1.41  67 1.41 154 1.43
 137  0.952  0.476  0.350- 151 1.43 153 1.43  30 1.43
 138  0.652  0.547  0.355-  97 1.43 120 1.43 116 1.43
 139  0.852  0.659  0.624- 142 1.43 112 1.43 144 1.43
 140  0.852  0.592  0.692- 109 1.42 141 1.42 134 1.43
 141  0.952  0.612  0.678-  28 1.42 140 1.42 144 1.43
 142  0.852  0.677  0.579- 139 1.43 146 1.43 111 1.43
 143  0.852  0.592  0.373- 152 1.43 121 1.43 150 1.43
 144  0.952  0.646  0.644- 141 1.43  16 1.43 139 1.43
 145  0.852  0.677  0.485- 148 1.43 114 1.43 147 1.43
 146  0.952  0.682  0.556- 147 1.43 142 1.43   2 1.43
 147  0.952  0.681  0.508- 146 1.43  37 1.43 145 1.43
 148  0.852  0.658  0.440- 149 1.43 135 1.43 145 1.43
 149  0.952  0.645  0.420- 152 1.43  24 1.43 148 1.43
 150  0.852  0.547  0.355- 151 1.43 120 1.43 143 1.43
 151  0.952  0.524  0.350- 137 1.43 150 1.43  26 1.43
 152  0.952  0.611  0.386- 143 1.43 149 1.43  23 1.43
 153  0.852  0.453  0.355- 137 1.43 123 1.43  38 1.43
 154  0.950  0.524  0.714- 134 1.41  14 1.41 136 1.43
 155  0.240  0.545  0.707-  44 1.36  15 1.36 160 1.94
 156  0.464  0.454  0.707-  71 1.36  74 1.36 160 1.94
 157  0.464  0.545  0.707-  40 1.36  59 1.36 160 1.94
 158  0.240  0.454  0.707-  60 1.36  12 1.36 160 1.94
 159  0.352  0.500  0.786- 160 2.20
 160  0.352  0.500  0.712- 156 1.94 157 1.94 155 1.94 158 1.94 159 2.20  12 2.67  74 2.67  15 2.67
                            59 2.67
 
  LATTYP: Found a simple orthorhombic cell.
 ALAT       =    12.3716611851
 B/A-ratio  =     2.4087226388
 C/A-ratio  =     2.4115222466
  
  Lattice vectors:
  
 A1 = ( -12.3716611851,   0.0000000000,   0.0000000000)
 A2 = (   0.0000000000,   0.0000000000, -29.7999003757)
 A3 = (   0.0000000000, -29.8345361757,   0.0000000000)


Analysis of symmetry for initial positions (statically):
=====================================================================
 Subroutine PRICEL returns:
 Original cell was already a primitive cell.
 

 Routine SETGRP: Setting up the symmetry group for a 
 simple orthorhombic supercell.


 Subroutine GETGRP returns: Found  1 space group operations
 (whereof  1 operations were pure point group operations)
 out of a pool of  8 trial point group operations.


The static configuration has the point symmetry C_1 .


Analysis of symmetry for dynamics (positions and initial velocities):
=====================================================================
 Subroutine PRICEL returns:
 Original cell was already a primitive cell.
 

 Routine SETGRP: Setting up the symmetry group for a 
 simple orthorhombic supercell.


 Subroutine GETGRP returns: Found  1 space group operations
 (whereof  1 operations were pure point group operations)
 out of a pool of  8 trial point group operations.


The dynamic configuration has the point symmetry C_1 .


Analysis of structural, dynamic, and magnetic symmetry:
=====================================================================
 Subroutine PRICEL returns:
 Original cell was already a primitive cell.
 

 Routine SETGRP: Setting up the symmetry group for a 
 simple orthorhombic supercell.


 Subroutine GETGRP returns: Found  1 space group operations
 (whereof  1 operations were pure point group operations)
 out of a pool of  8 trial point group operations.


The magnetic configuration has the point symmetry C_1 .


 Subroutine INISYM returns: Found  1 space group operations
 (whereof  1 operations are pure point group operations),
 and found     1 'primitive' translations

 
 
 KPOINTS: K-POINTS                                

Automatic generation of k-mesh.
Space group operators:
 irot       det(A)        alpha          n_x          n_y          n_z        tau_x        tau_y        tau_z
    1     1.000000     0.000000     1.000000     0.000000     0.000000     0.000000     0.000000     0.000000
 
 Subroutine IBZKPT returns following result:
 ===========================================
 
 Found      3 irreducible k-points:
 
 Following reciprocal coordinates:
            Coordinates               Weight
  0.000000  0.000000  0.000000      1.000000
  0.200000  0.000000  0.000000      2.000000
  0.400000  0.000000  0.000000      2.000000
 
 Following cartesian coordinates:
            Coordinates               Weight
  0.000000  0.000000  0.000000      1.000000
  0.016166  0.000000  0.000000      2.000000
  0.032332  0.000000  0.000000      2.000000
 


--------------------------------------------------------------------------------------------------------




 Dimension of arrays:
   k-points           NKPTS =      3   k-points in BZ     NKDIM =      3   number of bands    NBANDS=    408
   number of dos      NEDOS =    301   number of ions     NIONS =    160
   non local maximal  LDIM  =      6   non local SUM 2l+1 LMDIM =     18
   total plane-waves  NPLWV = ******
   max r-space proj   IRMAX =   6065   max aug-charges    IRDMAX=  14429
   dimension x,y,z NGX =    84 NGY =  196 NGZ =  196
   dimension x,y,z NGXF=   168 NGYF=  392 NGZF=  392
   support grid    NGXF=   168 NGYF=  392 NGZF=  392
   ions per type =             154   4   1   1
   NGX,Y,Z   is equivalent  to a cutoff of  11.29, 10.92, 10.93 a.u.
   NGXF,Y,Z  is equivalent  to a cutoff of  22.58, 21.84, 21.87 a.u.

 SYSTEM =  o2_graph_with_spin                      
 POSCAR =   C  N  O Pd                             

 Startparameter for this run:
   NWRITE =      2    write-flag & timer
   PREC   = accura    normal or accurate (medium, high low for compatibility)
   ISTART =      0    job   : 0-new  1-cont  2-samecut
   ICHARG =      1    charge: 1-file 2-atom 10-const
   ISPIN  =      2    spin polarized calculation?
   LNONCOLLINEAR =      F non collinear calculations
   LSORBIT =      F    spin-orbit coupling
   INIWAV =      1    electr: 0-lowe 1-rand  2-diag
   LASPH  =      F    aspherical Exc in radial PAW
   METAGGA=      F    non-selfconsistent MetaGGA calc.

 Electronic Relaxation 1
   ENCUT  =  400.0 eV  29.40 Ry    5.42 a.u.  20.18 48.65 48.60*2*pi/ulx,y,z
   ENINI  =  400.0     initial cutoff
   ENAUG  =  644.9 eV  augmentation charge cutoff
   NELM   =    200;   NELMIN=  2; NELMDL= -5     # of ELM steps 
   EDIFF  = 0.1E-04   stopping-criterion for ELM
   LREAL  =      T    real-space projection
   NLSPLINE    = F    spline interpolate recip. space projectors
   LCOMPAT=      F    compatible to vasp.4.4
   GGA_COMPAT  = T    GGA compatible to vasp.4.4-vasp.4.6
   LMAXPAW     = -100 max onsite density
   LMAXMIX     =    2 max onsite mixed and CHGCAR
   VOSKOWN=      0    Vosko Wilk Nusair interpolation
   ROPT   =   -0.00025  -0.00025  -0.00025  -0.00025
 Ionic relaxation
   EDIFFG = 0.1E-03   stopping-criterion for IOM
   NSW    =      0    number of steps for IOM
   NBLOCK =      1;   KBLOCK =      1    inner block; outer block 
   IBRION =     -1    ionic relax: 0-MD 1-quasi-New 2-CG
   NFREE  =      1    steps in history (QN), initial steepest desc. (CG)
   ISIF   =      0    stress and relaxation
   IWAVPR =     10    prediction:  0-non 1-charg 2-wave 3-comb
   ISYM   =      2    0-nonsym 1-usesym 2-fastsym
   LCORR  =      T    Harris-Foulkes like correction to forces

   POTIM  = 0.5000    time-step for ionic-motion
   TEIN   =    0.0    initial temperature
   TEBEG  =    0.0;   TEEND  =   0.0 temperature during run
   SMASS  =  -3.00    Nose mass-parameter (am)
   estimated Nose-frequenzy (Omega)   =  0.10E-29 period in steps =****** mass=  -0.350E-26a.u.
   SCALEE = 1.0000    scale energy and forces
   NPACO  =    256;   APACO  = 16.0  distance and # of slots for P.C.
   PSTRESS=    0.0 pullay stress

  Mass of Ions in am
   POMASS =  12.01 14.00 16.00106.42
  Ionic Valenz
   ZVAL   =   4.00  5.00  6.00 10.00
  Atomic Wigner-Seitz radii
   RWIGS  =  -1.00 -1.00 -1.00 -1.00
  virtual crystal weights 
   VCA    =   1.00  1.00  1.00  1.00
   NELECT =     652.0000    total number of electrons
   NUPDOWN=       2.0000    fix difference up-down

 DOS related values:
   EMIN   =  10.00;   EMAX   =-10.00  energy-range for DOS
   EFERMI =   0.00
   ISMEAR =     1;   SIGMA  =   0.10  broadening in eV -4-tet -1-fermi 0-gaus

 Electronic relaxation 2 (details)
   IALGO  =     68    algorithm
   LDIAG  =      T    sub-space diagonalisation (order eigenvalues)
   LSUBROT=      F    optimize rotation matrix (better conditioning)
   TURBO    =      0    0=normal 1=particle mesh
   IRESTART =      0    0=no restart 2=restart with 2 vectors
   NREBOOT  =      0    no. of reboots
   NMIN     =      0    reboot dimension
   EREF     =   0.00    reference energy to select bands
   IMIX   =      4    mixing-type and parameters
     AMIX     =   0.40;   BMIX     =  1.00
     AMIX_MAG =   1.60;   BMIX_MAG =  1.00
     AMIN     =   0.10
     WC   =   100.;   INIMIX=   1;  MIXPRE=   1;  MAXMIX= -45

 Intra band minimization:
   WEIMIN = 0.0000     energy-eigenvalue tresh-hold
   EBREAK =  0.61E-08  absolut break condition
   DEPER  =   0.30     relativ break condition  

   TIME   =   0.40     timestep for ELM

  volume/ion in A,a.u.               =      68.75       463.92
  Fermi-wavevector in a.u.,A,eV,Ry     =   0.638317  1.206245  5.543681  0.407449
  Thomas-Fermi vector in A             =   1.703618
 
 Write flags
   LWAVE        =      F    write WAVECAR
   LDOWNSAMPLE  =      F    k-point downsampling of WAVECAR
   LCHARG       =      F    write CHGCAR
   LVTOT        =      F    write LOCPOT, total local potential
   LVHAR        =      F    write LOCPOT, Hartree potential only
   LELF         =      F    write electronic localiz. function (ELF)
   LORBIT       =     12    0 simple, 1 ext, 2 COOP (PROOUT), +10 PAW based schemes


 Dipole corrections
   LMONO  =      F    monopole corrections only (constant potential shift)
   LDIPOL =      F    correct potential (dipole corrections)
   IDIPOL =      0    1-x, 2-y, 3-z, 4-all directions 
   EPSILON=  1.0000000 bulk dielectric constant

 Core level calculations are selected ICORELEVEL =  1
 Exchange correlation treatment:
   GGA     =    PE    GGA type
   LEXCH   =     8    internal setting for exchange type
   VOSKOWN=      0    Vosko Wilk Nusair interpolation
   LHFCALC =     F    Hartree Fock is set to
   LHFONE  =     F    Hartree Fock one center treatment
   AEXX    =    0.0000 exact exchange contribution

 Linear response parameters
   LEPSILON=     F    determine dielectric tensor
   LRPA    =     F    only Hartree local field effects (RPA)
   LNABLA  =     F    use nabla operator in PAW spheres
   LVEL    =     F    velocity operator in full k-point grid
   LINTERFAST=   F  fast interpolation
   KINTER  =     0    interpolate to denser k-point grid
   CSHIFT  =0.1000    complex shift for real part using Kramers Kronig
   OMEGAMAX=  -1.0    maximum frequency
   DEG_THRESHOLD= 0.2000000E-02 threshold for treating states as degnerate
   RTIME   =   -0.100 relaxation time in fs
  (WPLASMAI=    0.000 imaginary part of plasma frequency in eV, 0.658/RTIME)
   DFIELD  = 0.0000000 0.0000000 0.0000000 field for delta impulse in time
 
 Orbital magnetization related:
   ORBITALMAG=     F  switch on orbital magnetization
   LCHIMAG   =     F  perturbation theory with respect to B field
   DQ        =  0.001000  dq finite difference perturbation B field
   LLRAUG    =     F  two centre corrections for induced B field



--------------------------------------------------------------------------------------------------------


 Static calculation
 charge density and potential will be updated during run
 spin polarized calculation
 RMM-DIIS sequential band-by-band and
  variant of blocked Davidson during initial phase
 perform sub-space diagonalisation
    before iterative eigenvector-optimisation
 modified Broyden-mixing scheme, WC =      100.0
 initial mixing is a Kerker type mixing with AMIX =  0.4000 and BMIX =      1.0000
 Hartree-type preconditioning will be used
 using additional bands           82
 real space projection scheme for non local part
 use partial core corrections
 calculate Harris-corrections to forces 
   (improved forces if not selfconsistent)
 use gradient corrections 
 use of overlap-Matrix (Vanderbilt PP)
 Methfessel and Paxton  Order N= 1 SIGMA  =   0.10


--------------------------------------------------------------------------------------------------------


  energy-cutoff  :      400.00
  volume of cell :    10999.23
      direct lattice vectors                 reciprocal lattice vectors
    12.371661185  0.000000000  0.000000000     0.080829889  0.000000000  0.000000000
     0.000000000 29.834536176  0.000000000     0.000000000  0.033518202  0.000000000
     0.000000000  0.000000000 29.799900376     0.000000000  0.000000000  0.033557159

  length of vectors
    12.371661185 29.834536176 29.799900376     0.080829889  0.033518202  0.033557159


 
 k-points in units of 2pi/SCALE and weight: K-POINTS                                
   0.00000000  0.00000000  0.00000000       0.200
   0.01616598  0.00000000  0.00000000       0.400
   0.03233196  0.00000000  0.00000000       0.400
 
 k-points in reciprocal lattice and weights: K-POINTS                                
   0.00000000  0.00000000  0.00000000       0.200
   0.20000000  0.00000000  0.00000000       0.400
   0.40000000  0.00000000  0.00000000       0.400
 
 position of ions in fractional coordinates (direct lattice) 
   0.05228288  0.34127498  0.44022876
   0.05257055  0.67646941  0.57938328
   0.05234572  0.32300662  0.48452983
   0.15246712  0.31851465  0.50797443
   0.15223548  0.35451839  0.42022728
   0.05255552  0.32331918  0.57939233
   0.15264207  0.31903612  0.55591533
   0.05038767  0.40834043  0.69066548
   0.05259270  0.34174993  0.62361170
   0.15265800  0.68074770  0.55590255
   0.15253796  0.35632148  0.64284631
   0.14430834  0.47593948  0.71286455
   0.15121141  0.39040102  0.67623626
   0.04755108  0.54754367  0.70924782
   0.14430520  0.52388287  0.71287441
   0.05260605  0.65805065  0.62360897
   0.15255094  0.64347791  0.64283995
   0.35230247  0.31942689  0.55566427
   0.15227451  0.47596769  0.35013228
   0.25278135  0.32459799  0.57920090
   0.45161270  0.65565187  0.62291888
   0.15248228  0.68127820  0.50796196
   0.05226032  0.59151170  0.37311230
   0.05229759  0.65852909  0.44022073
   0.15224772  0.64529621  0.42021002
   0.05227233  0.54729037  0.35479541
   0.15227979  0.52384470  0.35012793
   0.05039244  0.59149477  0.69070070
   0.15225631  0.61142709  0.38633461
   0.05226593  0.45251717  0.35480044
   0.05224870  0.40829725  0.37312262
   0.15224649  0.38838925  0.38635397
   0.25228140  0.34118733  0.44003696
   0.25230629  0.32304771  0.48435656
   0.35229426  0.31862878  0.50784195
   0.35228464  0.35444195  0.42008908
   0.05235838  0.67679073  0.48452339
   0.85227686  0.40830512  0.37318230
   0.15122513  0.60941743  0.67624920
   0.45536972  0.58682956  0.68827063
   0.25227526  0.54730110  0.35476164
   0.35231603  0.39408646  0.67573497
   0.25303228  0.65566537  0.62292733
   0.24927453  0.58683355  0.68827019
   0.35228602  0.52383569  0.35010611
   0.25280019  0.67517742  0.57917893
   0.35231822  0.68034925  0.55563996
   0.35232366  0.60571357  0.67572799
   0.25232131  0.67675656  0.48433726
   0.35231367  0.68116554  0.50781875
   0.25226937  0.59155617  0.37302181
   0.25229554  0.65863238  0.44000957
   0.35229880  0.64539228  0.42004903
   0.35232226  0.64062774  0.64244176
   0.95226605  0.38842010  0.38647019
   0.25226880  0.45251763  0.35477934
   0.35229253  0.61149006  0.38626371
   0.25302005  0.34411262  0.62294977
   0.56033840  0.52388227  0.71289307
   0.24926685  0.41297639  0.68826591
   0.35231506  0.35915398  0.64246468
   0.35228050  0.47598615  0.35011828
   0.25226018  0.40826862  0.37305349
   0.35227837  0.38834654  0.38630828
   0.45229075  0.34118979  0.44003839
   0.45227669  0.32305107  0.48435743
   0.04753660  0.45228927  0.70921497
   0.55212250  0.31851928  0.50797271
   0.45182784  0.32460423  0.57919812
   0.55196046  0.31904542  0.55591262
   0.45536556  0.41298000  0.68826785
   0.45160680  0.34411993  0.62294626
   0.55208877  0.35633362  0.64284199
   0.56033197  0.47593803  0.71288473
   0.55342288  0.39040679  0.67623759
   0.55233396  0.35451896  0.42022863
   0.95238180  0.31832009  0.50805218
   0.55341962  0.60940535  0.67624269
   0.95227816  0.35418972  0.64374409
   0.55197510  0.68073506  0.55589233
   0.55209312  0.64345859  0.64282787
   0.45229492  0.67675798  0.48433050
   0.55213838  0.68127716  0.50795175
   0.45231231  0.59156600  0.37301056
   0.45230919  0.65864199  0.43999886
   0.55235197  0.64531430  0.42018988
   0.75230611  0.35458345  0.42036411
   0.45229690  0.54730672  0.35475562
   0.55233092  0.61144490  0.38631205
   0.45229082  0.45252037  0.35478397
   0.55228733  0.47597254  0.35013493
   0.45229773  0.40827153  0.37305648
   0.55231476  0.38839304  0.38635805
   0.65229156  0.34127386  0.44022903
   0.75220821  0.31832357  0.50805131
   0.65205032  0.32333000  0.57938821
   0.65232529  0.59152665  0.37309210
   0.65203147  0.65802842  0.62359487
   0.65425008  0.40834301  0.69067353
   0.65202741  0.34176373  0.62360617
   0.75234517  0.35419804  0.64374112
   0.65710457  0.45228813  0.70923628
   0.75502629  0.47602871  0.71428048
   0.75298013  0.38773007  0.67787911
   0.65709433  0.54754005  0.70925765
   0.85232169  0.45193385  0.70961684
   0.75215124  0.31826715  0.55598093
   0.65425214  0.59148659  0.69069742
   0.75297822  0.61210530  0.67790854
   0.65206187  0.67645114  0.57937289
   0.75216381  0.68152388  0.55597314
   0.75234659  0.64561495  0.64374785
   0.65226051  0.67679666  0.48451251
   0.75222747  0.68147230  0.50804271
   0.75503557  0.52380454  0.71429722
   0.55229118  0.52385125  0.35012051
   0.65224094  0.32300760  0.48452930
   0.65230981  0.65854599  0.44020362
   0.45184019  0.67516601  0.57917253
   0.75229040  0.52383668  0.35013032
   0.75230864  0.61139633  0.38645081
   0.65229338  0.45252228  0.35480608
   0.75228739  0.47597901  0.35013758
   0.65230880  0.40830188  0.37312619
   0.75229137  0.38842119  0.38647143
   0.85228502  0.34131412  0.44029538
   0.95165343  0.38772636  0.67787887
   0.85229331  0.32299389  0.48459208
   0.95226151  0.35458395  0.42036534
   0.85230370  0.32273550  0.57944657
   0.95245184  0.31826035  0.55598266
   0.85231864  0.40754747  0.69151939
   0.85230861  0.34081334  0.62379684
   0.85232236  0.54790823  0.70965723
   0.75232718  0.64522970  0.42034795
   0.94961740  0.47603015  0.71426726
   0.95227202  0.47597494  0.35013324
   0.65229983  0.54730050  0.35478336
   0.85231582  0.65899210  0.62380075
   0.85232209  0.59229904  0.69156700
   0.95166292  0.61211446  0.67791522
   0.85231304  0.67706044  0.57944452
   0.85229381  0.59150567  0.37316832
   0.95228988  0.64562925  0.64375681
   0.85231176  0.67680362  0.48458608
   0.95246340  0.68153326  0.55597941
   0.95239462  0.68147418  0.50804923
   0.85230405  0.65848728  0.44028919
   0.95227772  0.64522008  0.42035830
   0.85228739  0.54728118  0.35480303
   0.95227693  0.52383154  0.35013208
   0.95227940  0.61138767  0.38646179
   0.85227852  0.45252745  0.35481210
   0.94961408  0.52380563  0.71429002
   0.24047266  0.54537907  0.70675149
   0.46417257  0.45443623  0.70674944
   0.46416918  0.54538059  0.70676600
   0.24046320  0.45443424  0.70674298
   0.35229762  0.49984414  0.78590811
   0.35232076  0.49990485  0.71220637
 
 position of ions in cartesian coordinates  (Angst):
   0.64682607 10.18178073 13.11877332
   0.65038500 20.18215095 17.26556406
   0.64760346  9.63675263 14.43894081
   1.88627153  9.50273672 15.13758743
   1.88340577 10.57689158 12.52273101
   0.65019909  9.64607784 17.26583384
   1.88843597  9.51829466 16.56622132
   0.62337916 12.18264730 20.58176248
   0.65065904 10.19595061 18.58356639
   1.88863304 20.30979182 16.56584074
   1.88714795 10.63068613 19.15675602
   1.78533384 14.19943372 21.24329254
   1.87073633 11.64743330 20.15177308
   0.58828587 16.33571147 21.13551426
   1.78529507 15.62980245 21.24358645
   0.65082420 19.63263593 18.58348528
   1.88730851 19.19786507 19.15656641
   4.35856684  9.52995304 16.55873982
   1.88388864 14.20027521 10.43390695
   3.12732527  9.68423043 17.26012916
   5.58719926 19.56106956 18.56292057
   1.88645908 20.32561897 15.13721570
   0.64654697 17.64747730 11.11870950
   0.64700801 19.64691006 13.11853383
   1.88355716 19.25211305 12.52221667
   0.64669551 16.32815426 10.57286797
   1.88395401 15.62866374 10.43377745
   0.62343824 17.64697222 20.58281216
   1.88366348 18.24164366 11.51273302
   0.64661633 13.50063997 10.57301780
   0.64640318 12.18135912 11.11901684
   1.88354194 11.58741320 11.51330989
   3.12113999 10.17916574 13.11305759
   3.12144796  9.63797851 14.43377726
   4.35846524  9.50614177 15.13363962
   4.35834622 10.57461121 12.51861277
   0.64776016 20.19173750 14.43874885
  10.54408055 12.18159400 11.12079528
   1.87090606 18.18168639 20.15215864
   5.63367989 17.50778759 20.51039615
   3.12106402 16.32847442 10.57186167
   4.35873456 11.75738671 20.13683469
   3.13042966 19.56147210 18.56317250
   3.08394000 17.50790680 20.51038321
   4.35836324 15.62839476 10.43312713
   3.12755833 20.14360516 17.25947455
   4.35876162 20.29790437 16.55801545
   4.35882894 18.07118346 20.13662673
   3.12163375 20.19071801 14.43320200
   4.35870538 20.32225788 15.13294817
   3.12099111 17.64880391 11.11601282
   3.12131495 19.64999167 13.11224142
   4.35852138 19.25497944 12.51741916
   4.35881169 19.11283137 19.14470042
  11.78111292 11.58833356 11.51677303
   3.12098408 13.50065372 10.57238903
   4.35844377 18.24352224 11.51061999
   3.13027832 10.26644039 18.56384115
   6.93231685 15.62978465 21.24414245
   3.08384507 12.32095910 20.51025546
   4.35872250 10.71519241 19.14538350
   4.35829502 14.20082607 10.43348998
   3.12087751 12.18050479 11.11695690
   4.35826867 11.58613894 11.51194832
   5.59558797 10.17923927 13.11310017
   5.59541400  9.63807876 14.43380308
   0.58810674 13.49384057 21.13453557
   6.83067245  9.50287502 15.13753622
   5.58986101  9.68441663 17.26004637
   6.82866782  9.51857222 16.56614076
   5.63362837 12.32106685 20.51031324
   5.58712630 10.26665836 18.56373635
   6.83025524 10.63104836 19.15662740
   6.93223724 14.19939031 21.24389384
   6.84676031 11.64760546 20.15181292
   6.83328859 10.57690874 12.52277140
  11.78254491  9.49693213 15.13990423
   6.84672001 18.18132610 20.15196471
  11.78126275 10.56708593 19.18350977
   6.82884896 20.30941470 16.56553594
   6.83030903 19.19728870 19.15620651
   5.59563956 20.19076053 14.43300069
   6.83086900 20.32558810 15.13691157
   5.59585463 17.64909736 11.11567745
   5.59581606 19.65027829 13.11192230
   6.83351148 19.25265277 12.52161671
   9.30727624 10.57883279 12.52680855
   5.59566398 16.32864223 10.57168204
   6.83325105 18.24217497 11.51206051
   5.59558877 13.50073543 10.57252703
   6.83271176 14.20042005 10.43398611
   5.59567428 12.18059176 11.11704579
   6.83305103 11.58752616 11.51343132
   8.06993020 10.18174737 13.11878131
   9.30606517  9.49703616 15.13987855
   8.06694566  9.64640055 17.26571099
   8.07034750 17.64792334 11.11810754
   8.06671243 19.63197277 18.58306513
   8.09416035 12.18272428 20.58200234
   8.06666218 10.19636226 18.58340162
   9.30775958 10.56733420 19.18342132
   8.12947511 13.49380656 21.13517050
   9.34092941 14.20209586 21.28548712
   9.31561503 11.56774683 20.20072998
   8.12934843 16.33560344 21.13580730
  10.54463511 13.48323670 21.14651113
   9.30536028  9.49535271 16.56817634
   8.09418581 17.64672807 20.58271434
   9.31559138 18.26187781 20.20160688
   8.06708848 20.18160598 17.26525438
   9.30551577 20.33294890 16.56794419
   9.30777705 19.26162243 19.18362175
   8.06954598 20.19191441 14.43842452
   9.30630341 20.33141006 15.13962217
   9.34104426 15.62746556 21.28598598
   6.83275933 15.62885916 10.43355632
   8.06930391  9.63678180 14.43892484
   8.07015596 19.64741407 13.11802401
   5.59001368 20.14326485 17.25928380
   9.30708192 15.62842433 10.43384878
   9.30730757 18.24072597 11.51619567
   8.06995272 13.50079248 10.57318576
   9.30704474 14.20061287 10.43406509
   8.07014344 12.18149733 11.11912334
   9.30709400 11.58836618 11.51680997
  10.54418151 10.18294831 13.12075847
  11.77353374 11.56763620 20.20072290
  10.54428411  9.63637292 14.44079556
  11.78105672 10.57884759 12.52684525
  10.54441260  9.62866407 17.26744993
  11.78341148  9.49515003 16.56822784
  10.54459739 12.15898980 20.60720892
  10.54447333 10.16800803 18.58908365
  10.54464349 16.34658790 21.14771481
   9.30753692 19.25012870 12.52632707
  11.74834477 14.20213878 21.28509311
  11.78118675 14.20049144 10.43393568
   8.07003246 16.32845660 10.57250875
  10.54456260 19.66072354 18.58920006
  10.54464012 17.67096716 20.60862774
  11.77365125 18.26215105 20.20180611
  10.54452817 20.19978415 17.26738891
  10.54429027 17.64729738 11.12037869
  11.78140774 19.26204929 19.18388891
  10.54451228 20.19212194 14.44061687
  11.78355444 20.33322858 16.56813097
  11.78270360 20.33146608 15.13981651
  10.54441697 19.64566268 13.12057393
  11.78125733 19.24984176 12.52663555
  10.54421081 16.32788021 10.57309483
  11.78124749 15.62827101 10.43390101
  11.78127814 18.24046756 11.51652298
  10.54410111 13.50094662 10.57336519
  11.74830360 15.62749815 21.28577136
   2.97504622 16.27113173 21.06112394
   5.74258572 13.55789426 21.06106303
   5.74254381 16.27117689 21.06155636
   2.97492921 13.55783485 21.06087052
   4.35850674 14.91261799 23.41998350
   4.35879303 14.91442920 21.22367880
 


--------------------------------------------------------------------------------------------------------


 k-point  1 :   0.0000 0.0000 0.0000  plane waves:  199925
 k-point  2 :   0.2000 0.0000 0.0000  plane waves:  199772
 k-point  3 :   0.4000 0.0000 0.0000  plane waves:  199812

 maximum and minimum number of plane-waves per node :     40059    39895

 maximum number of plane-waves:    199925
 maximum index in each direction: 
   IXMAX=   20   IYMAX=   48   IZMAX=   48
   IXMIN=  -20   IYMIN=  -48   IZMIN=  -48


 real space projection operators:
  total allocation   :      41746.53 KBytes
  max/ min on nodes  :       8458.19       7974.52


 parallel 3D FFT for wavefunctions:
    minimum data exchange during FFTs selected (reduces bandwidth)
 parallel 3D FFT for charge:
    minimum data exchange during FFTs selected (reduces bandwidth)


 total amount of memory used by VASP MPI-rank0   426024. kBytes
=======================================================================

   base      :      30000. kBytes
   nonlr-proj:      26819. kBytes
   fftplans  :      44301. kBytes
   grid      :     126424. kBytes
   one-center:        995. kBytes
   wavefun   :     197485. kBytes
 
     INWAV:  cpu time    0.0000: real time    0.0002
 Broyden mixing: mesh for mixing (old mesh)
   NGX = 41   NGY = 97   NGZ = 97
  (NGX  =168   NGY  =392   NGZ  =392)
  gives a total of 385769 points

 initial charge density was supplied:
 charge density of overlapping atoms calculated
 number of electron     652.0000000 magnetization       2.5000000
 keeping initial charge density in first step


--------------------------------------------------------------------------------------------------------


 Maximum index for non-local projection operator         1188
 Maximum index for augmentation-charges          343 (set IRDMAX)


--------------------------------------------------------------------------------------------------------


 First call to EWALD:  gamma=   0.080
 Maximum number of real-space cells 5x 2x 2
 Maximum number of reciprocal cells 2x 4x 4

    FEWALD:  cpu time    0.0069: real time    0.0072


--------------------------------------- Iteration      1(   1)  ---------------------------------------


    POTLOK:  cpu time    2.2371: real time    2.3251
    SETDIJ:  cpu time    0.0398: real time    0.0412
     EDDAV:  cpu time  170.7458: real time  172.4792
       DOS:  cpu time    0.0020: real time    0.0021
    --------------------------------------------
      LOOP:  cpu time  173.0248: real time  174.8477

 eigenvalue-minimisations  :  6096
 total energy-change (2. order) : 0.5846758E+04  (-0.2017481E+05)
 number of electron     652.0000000 magnetization       2.5000000
 augmentation part      652.0000000 magnetization       2.5000000

 Free energy of the ion-electron system (eV)
  ---------------------------------------------------
  alpha Z        PSCENC =       197.81766084
  Ewald energy   TEWEN  =    198073.17844910
  -Hartree energ DENC   =   -216130.90142882
  -exchange      EXHF   =         0.00000000
  -V(xc)+E(xc)   XCENC  =      2106.95237427
  PAW double counting   =     18685.01536382   -18717.06975246
  entropy T*S    EENTRO =         0.00141365
  eigenvalues    EBANDS =     -3325.73598169
  atomic energy  EATOM  =     24957.49957450
  Solvation  Ediel_sol  =         0.00000000
  ---------------------------------------------------
  free energy    TOTEN  =      5846.75767320 eV

  energy without entropy =     5846.75625955  energy(sigma->0) =     5846.75720199


--------------------------------------------------------------------------------------------------------




--------------------------------------- Iteration      1(   2)  ---------------------------------------


     EDDAV:  cpu time  197.3540: real time  199.8817
       DOS:  cpu time    0.0017: real time    0.0017
    --------------------------------------------
      LOOP:  cpu time  197.3557: real time  199.8834

 eigenvalue-minimisations  :  7304
 total energy-change (2. order) :-0.5862413E+04  (-0.5491089E+04)
 number of electron     652.0000000 magnetization       2.5000000
 augmentation part      652.0000000 magnetization       2.5000000

 Free energy of the ion-electron system (eV)
  ---------------------------------------------------
  alpha Z        PSCENC =       197.81766084
  Ewald energy   TEWEN  =    198073.17844910
  -Hartree energ DENC   =   -216130.90142882
  -exchange      EXHF   =         0.00000000
  -V(xc)+E(xc)   XCENC  =      2106.95237427
  PAW double counting   =     18685.01536382   -18717.06975246
  entropy T*S    EENTRO =        -0.01154796
  eigenvalues    EBANDS =     -9188.13635299
  atomic energy  EATOM  =     24957.49957450
  Solvation  Ediel_sol  =         0.00000000
  ---------------------------------------------------
  free energy    TOTEN  =       -15.65565972 eV

  energy without entropy =      -15.64411175  energy(sigma->0) =      -15.65181039


--------------------------------------------------------------------------------------------------------




--------------------------------------- Iteration      1(   3)  ---------------------------------------


     EDDAV:  cpu time  172.1431: real time  175.8155
       DOS:  cpu time    0.0025: real time    0.0025
    --------------------------------------------
      LOOP:  cpu time  172.1456: real time  175.8180

 eigenvalue-minimisations  :  6168
 total energy-change (2. order) :-0.1463163E+04  (-0.1447079E+04)
 number of electron     652.0000000 magnetization       2.5000000
 augmentation part      652.0000000 magnetization       2.5000000

 Free energy of the ion-electron system (eV)
  ---------------------------------------------------
  alpha Z        PSCENC =       197.81766084
  Ewald energy   TEWEN  =    198073.17844910
  -Hartree energ DENC   =   -216130.90142882
  -exchange      EXHF   =         0.00000000
  -V(xc)+E(xc)   XCENC  =      2106.95237427
  PAW double counting   =     18685.01536382   -18717.06975246
  entropy T*S    EENTRO =        -0.00578859
  eigenvalues    EBANDS =    -10651.30466749
  atomic energy  EATOM  =     24957.49957450
  Solvation  Ediel_sol  =         0.00000000
  ---------------------------------------------------
  free energy    TOTEN  =     -1478.81821485 eV

  energy without entropy =    -1478.81242625  energy(sigma->0) =    -1478.81628531


--------------------------------------------------------------------------------------------------------




--------------------------------------- Iteration      1(   4)  ---------------------------------------


     EDDAV:  cpu time  166.7457: real time  168.1601
       DOS:  cpu time    0.0195: real time    0.0195
    --------------------------------------------
      LOOP:  cpu time  166.7652: real time  168.1797

 eigenvalue-minimisations  :  5912
 total energy-change (2. order) :-0.7340681E+02  (-0.7212569E+02)
 number of electron     652.0000000 magnetization       2.5000000
 augmentation part      652.0000000 magnetization       2.5000000

 Free energy of the ion-electron system (eV)
  ---------------------------------------------------
  alpha Z        PSCENC =       197.81766084
  Ewald energy   TEWEN  =    198073.17844910
  -Hartree energ DENC   =   -216130.90142882
  -exchange      EXHF   =         0.00000000
  -V(xc)+E(xc)   XCENC  =      2106.95237427
  PAW double counting   =     18685.01536382   -18717.06975246
  entropy T*S    EENTRO =         0.00384405
  eigenvalues    EBANDS =    -10724.72110738
  atomic energy  EATOM  =     24957.49957450
  Solvation  Ediel_sol  =         0.00000000
  ---------------------------------------------------
  free energy    TOTEN  =     -1552.22502209 eV

  energy without entropy =    -1552.22886614  energy(sigma->0) =    -1552.22630344


--------------------------------------------------------------------------------------------------------




--------------------------------------- Iteration      1(   5)  ---------------------------------------


     EDDAV:  cpu time  183.5680: real time  185.0288
       DOS:  cpu time    0.0325: real time    0.0325
    CHARGE:  cpu time   12.0016: real time   12.1026
    MIXING:  cpu time    0.0359: real time    0.0392
    --------------------------------------------
      LOOP:  cpu time  195.6379: real time  197.2030

 eigenvalue-minimisations  :  6680
 total energy-change (2. order) :-0.2044932E+01  (-0.2015281E+01)
 number of electron     652.0000067 magnetization       2.4660246
 augmentation part       20.1492951 magnetization       1.4047112

 Broyden mixing:
  rms(total) = 0.64360E+01    rms(broyden)= 0.64348E+01
  rms(prec ) = 0.66914E+01
  weight for this iteration     100.00

 Free energy of the ion-electron system (eV)
  ---------------------------------------------------
  alpha Z        PSCENC =       197.81766084
  Ewald energy   TEWEN  =    198073.17844910
  -Hartree energ DENC   =   -216130.90142882
  -exchange      EXHF   =         0.00000000
  -V(xc)+E(xc)   XCENC  =      2106.95237427
  PAW double counting   =     18685.01536382   -18717.06975246
  entropy T*S    EENTRO =         0.00556605
  eigenvalues    EBANDS =    -10726.76776156
  atomic energy  EATOM  =     24957.49957450
  Solvation  Ediel_sol  =         0.00000000
  ---------------------------------------------------
  free energy    TOTEN  =     -1554.26995427 eV

  energy without entropy =    -1554.27552033  energy(sigma->0) =    -1554.27180962


--------------------------------------------------------------------------------------------------------




--------------------------------------- Iteration      1(   6)  ---------------------------------------


    POTLOK:  cpu time    2.2228: real time    2.2705
    SETDIJ:  cpu time    0.0398: real time    0.0401
    EDDIAG:  cpu time   28.4720: real time   28.5572
  RMM-DIIS:  cpu time  108.8560: real time  109.5451
    ORTHCH:  cpu time    3.7917: real time    3.7961
       DOS:  cpu time    0.0038: real time    0.0038
    CHARGE:  cpu time   12.0033: real time   12.0534
    MIXING:  cpu time    0.0325: real time    0.0799
    --------------------------------------------
      LOOP:  cpu time  155.4220: real time  156.3459

 eigenvalue-minimisations  :  6139
 total energy-change (2. order) : 0.4959528E+02  (-0.2966689E+02)
 number of electron     652.0000060 magnetization       2.4580222
 augmentation part       22.0117683 magnetization       0.8501605

 Broyden mixing:
  rms(total) = 0.91256E+01    rms(broyden)= 0.91243E+01
  rms(prec ) = 0.92388E+01
  weight for this iteration     100.00

 eigenvalues of (default mixing * dielectric matrix)
  average eigenvalue GAMMA=   0.1591
  0.1591

 Free energy of the ion-electron system (eV)
  ---------------------------------------------------
  alpha Z        PSCENC =       197.81766084
  Ewald energy   TEWEN  =    198073.17844910
  -Hartree energ DENC   =   -216946.42048845
  -exchange      EXHF   =         0.00000000
  -V(xc)+E(xc)   XCENC  =      2146.60391592
  PAW double counting   =     33409.30942677   -33457.29594752
  entropy T*S    EENTRO =        -0.00382154
  eigenvalues    EBANDS =     -9885.36344014
  atomic energy  EATOM  =     24957.49957450
  Solvation  Ediel_sol  =         0.00000000
  ---------------------------------------------------
  free energy    TOTEN  =     -1504.67467053 eV

  energy without entropy =    -1504.67084898  energy(sigma->0) =    -1504.67339668


--------------------------------------------------------------------------------------------------------




--------------------------------------- Iteration      1(   7)  ---------------------------------------


    POTLOK:  cpu time    2.2105: real time    2.2672
    SETDIJ:  cpu time    0.0397: real time    0.0398
    EDDIAG:  cpu time   28.4403: real time   28.6911
  RMM-DIIS:  cpu time  106.1745: real time  107.1752
    ORTHCH:  cpu time    3.7627: real time    3.7802
       DOS:  cpu time    0.0129: real time    0.0129
    CHARGE:  cpu time   11.6347: real time   11.7335
    MIXING:  cpu time    0.0323: real time    0.0323
    --------------------------------------------
      LOOP:  cpu time  152.3075: real time  153.7323

 eigenvalue-minimisations  :  5996
 total energy-change (2. order) : 0.1662222E+02  (-0.2403410E+01)
 number of electron     652.0000053 magnetization       2.4483626
 augmentation part       22.4265711 magnetization       0.7257103

 Broyden mixing:
  rms(total) = 0.73289E+01    rms(broyden)= 0.73281E+01
  rms(prec ) = 0.74210E+01
  weight for this iteration     100.00

 eigenvalues of (default mixing * dielectric matrix)
  average eigenvalue GAMMA=   0.3647
  0.3647  0.3647

 Free energy of the ion-electron system (eV)
  ---------------------------------------------------
  alpha Z        PSCENC =       197.81766084
  Ewald energy   TEWEN  =    198073.17844910
  -Hartree energ DENC   =   -217108.94119240
  -exchange      EXHF   =         0.00000000
  -V(xc)+E(xc)   XCENC  =      2151.03342300
  PAW double counting   =     36314.38868105   -36363.68066528
  entropy T*S    EENTRO =        -0.00225264
  eigenvalues    EBANDS =     -9709.34612463
  atomic energy  EATOM  =     24957.49957450
  Solvation  Ediel_sol  =         0.00000000
  ---------------------------------------------------
  free energy    TOTEN  =     -1488.05244647 eV

  energy without entropy =    -1488.05019383  energy(sigma->0) =    -1488.05169559


--------------------------------------------------------------------------------------------------------




--------------------------------------- Iteration      1(   8)  ---------------------------------------


    POTLOK:  cpu time    2.2470: real time    2.2936
    SETDIJ:  cpu time    0.0427: real time    0.0431
    EDDIAG:  cpu time   28.3919: real time   28.5600
  RMM-DIIS:  cpu time   98.7482: real time   99.4404
    ORTHCH:  cpu time    3.8315: real time    3.8433
       DOS:  cpu time    0.0030: real time    0.0030
    CHARGE:  cpu time   11.9693: real time   12.0456
    MIXING:  cpu time    0.0324: real time    0.0443
    --------------------------------------------
      LOOP:  cpu time  145.2658: real time  146.2732

 eigenvalue-minimisations  :  5601
 total energy-change (2. order) :-0.4029288E+01  (-0.1086672E+01)
 number of electron     652.0000058 magnetization       2.4208226
 augmentation part       21.4993604 magnetization       0.6253632

 Broyden mixing:
  rms(total) = 0.60577E+01    rms(broyden)= 0.60572E+01
  rms(prec ) = 0.62526E+01
  weight for this iteration     100.00

 eigenvalues of (default mixing * dielectric matrix)
  average eigenvalue GAMMA=   0.4924
  0.5710  0.5710  0.3352

 Free energy of the ion-electron system (eV)
  ---------------------------------------------------
  alpha Z        PSCENC =       197.81766084
  Ewald energy   TEWEN  =    198073.17844910
  -Hartree energ DENC   =   -217240.93354322
  -exchange      EXHF   =         0.00000000
  -V(xc)+E(xc)   XCENC  =      2157.81412536
  PAW double counting   =     39523.15581334   -39573.97478179
  entropy T*S    EENTRO =        -0.00350479
  eigenvalues    EBANDS =     -9586.63552741
  atomic energy  EATOM  =     24957.49957450
  Solvation  Ediel_sol  =         0.00000000
  ---------------------------------------------------
  free energy    TOTEN  =     -1492.08173406 eV

  energy without entropy =    -1492.07822927  energy(sigma->0) =    -1492.08056580


--------------------------------------------------------------------------------------------------------




--------------------------------------- Iteration      1(   9)  ---------------------------------------


    POTLOK:  cpu time    2.2128: real time    2.2569
    SETDIJ:  cpu time    0.0402: real time    0.0403
    EDDIAG:  cpu time   28.3108: real time   28.5107
  RMM-DIIS:  cpu time   94.7484: real time   95.3531
    ORTHCH:  cpu time    3.8118: real time    3.8219
       DOS:  cpu time    0.0110: real time    0.0110
    CHARGE:  cpu time   12.0334: real time   12.0946
    MIXING:  cpu time    0.0344: real time    0.0344
    --------------------------------------------
      LOOP:  cpu time  141.2028: real time  142.1229

 eigenvalue-minimisations  :  5369
 total energy-change (2. order) : 0.3471485E+02  (-0.5616978E+01)
 number of electron     652.0000053 magnetization       2.3805376
 augmentation part       19.8806457 magnetization       0.6914282

 Broyden mixing:
  rms(total) = 0.33881E+01    rms(broyden)= 0.33866E+01
  rms(prec ) = 0.34449E+01
  weight for this iteration     100.00

 eigenvalues of (default mixing * dielectric matrix)
  average eigenvalue GAMMA=   0.7686
  1.8526  0.4727  0.4727  0.2766

 Free energy of the ion-electron system (eV)
  ---------------------------------------------------
  alpha Z        PSCENC =       197.81766084
  Ewald energy   TEWEN  =    198073.17844910
  -Hartree energ DENC   =   -217653.81855233
  -exchange      EXHF   =         0.00000000
  -V(xc)+E(xc)   XCENC  =      2170.88470309
  PAW double counting   =     48242.16591244   -48295.02408472
  entropy T*S    EENTRO =        -0.00328296
  eigenvalues    EBANDS =     -9150.06726623
  atomic energy  EATOM  =     24957.49957450
  Solvation  Ediel_sol  =         0.00000000
  ---------------------------------------------------
  free energy    TOTEN  =     -1457.36688628 eV

  energy without entropy =    -1457.36360332  energy(sigma->0) =    -1457.36579196


--------------------------------------------------------------------------------------------------------




--------------------------------------- Iteration      1(  10)  ---------------------------------------


    POTLOK:  cpu time    2.2146: real time    2.2585
    SETDIJ:  cpu time    0.0399: real time    0.0399
    EDDIAG:  cpu time   28.4309: real time   28.6294
  RMM-DIIS:  cpu time   95.6309: real time   95.9856
    ORTHCH:  cpu time    3.8942: real time    3.9038
       DOS:  cpu time    0.0032: real time    0.0032
    CHARGE:  cpu time   12.3026: real time   12.3491
    MIXING:  cpu time    0.0347: real time    0.0347
    --------------------------------------------
      LOOP:  cpu time  142.5510: real time  143.2041

 eigenvalue-minimisations  :  5426
 total energy-change (2. order) : 0.9920831E+00  (-0.1790161E+01)
 number of electron     652.0000056 magnetization       2.3586678
 augmentation part       18.7399153 magnetization       0.4833606

 Broyden mixing:
  rms(total) = 0.34086E+01    rms(broyden)= 0.34066E+01
  rms(prec ) = 0.36108E+01
  weight for this iteration     100.00

 eigenvalues of (default mixing * dielectric matrix)
  average eigenvalue GAMMA=   0.7993
  2.1824  0.5300  0.5300  0.4922  0.2618

 Free energy of the ion-electron system (eV)
  ---------------------------------------------------
  alpha Z        PSCENC =       197.81766084
  Ewald energy   TEWEN  =    198073.17844910
  -Hartree energ DENC   =   -218142.24770072
  -exchange      EXHF   =         0.00000000
  -V(xc)+E(xc)   XCENC  =      2190.71672897
  PAW double counting   =     61569.63889253   -61627.20617293
  entropy T*S    EENTRO =        -0.01171112
  eigenvalues    EBANDS =     -8675.76052436
  atomic energy  EATOM  =     24957.49957450
  Solvation  Ediel_sol  =         0.00000000
  ---------------------------------------------------
  free energy    TOTEN  =     -1456.37480321 eV

  energy without entropy =    -1456.36309209  energy(sigma->0) =    -1456.37089950


--------------------------------------------------------------------------------------------------------




--------------------------------------- Iteration      1(  11)  ---------------------------------------


    POTLOK:  cpu time    2.2483: real time    2.2940
    SETDIJ:  cpu time    0.0394: real time    0.0395
    EDDIAG:  cpu time   28.1275: real time   28.5496
  RMM-DIIS:  cpu time   96.4394: real time   97.1690
    ORTHCH:  cpu time    3.7975: real time    3.8636
       DOS:  cpu time    0.0017: real time    0.0029
    CHARGE:  cpu time   11.7754: real time   11.8891
    MIXING:  cpu time    0.0358: real time    0.0358
    --------------------------------------------
      LOOP:  cpu time  142.4650: real time  143.8435

 eigenvalue-minimisations  :  5485
 total energy-change (2. order) : 0.6687180E+01  (-0.9540573E+00)
 number of electron     652.0000048 magnetization       2.3547567
 augmentation part       20.3376318 magnetization       0.4989636

 Broyden mixing:
  rms(total) = 0.25257E+01    rms(broyden)= 0.25239E+01
  rms(prec ) = 0.25443E+01
  weight for this iteration     100.00

 eigenvalues of (default mixing * dielectric matrix)
  average eigenvalue GAMMA=   0.6969
  2.1305  0.5515  0.5515  0.4733  0.2723  0.2022

 Free energy of the ion-electron system (eV)
  ---------------------------------------------------
  alpha Z        PSCENC =       197.81766084
  Ewald energy   TEWEN  =    198073.17844910
  -Hartree energ DENC   =   -218285.97081243
  -exchange      EXHF   =         0.00000000
  -V(xc)+E(xc)   XCENC  =      2195.78940576
  PAW double counting   =     66110.18788098   -66168.98307207
  entropy T*S    EENTRO =        -0.01361826
  eigenvalues    EBANDS =     -8529.19309204
  atomic energy  EATOM  =     24957.49957450
  Solvation  Ediel_sol  =         0.00000000
  ---------------------------------------------------
  free energy    TOTEN  =     -1449.68762363 eV

  energy without entropy =    -1449.67400537  energy(sigma->0) =    -1449.68308421


--------------------------------------------------------------------------------------------------------




--------------------------------------- Iteration      1(  12)  ---------------------------------------


    POTLOK:  cpu time    2.2128: real time    2.2618
    SETDIJ:  cpu time    0.0393: real time    0.0396
    EDDIAG:  cpu time   28.2626: real time   28.5233
  RMM-DIIS:  cpu time  109.9114: real time  111.2152
    ORTHCH:  cpu time    3.7916: real time    3.8065
       DOS:  cpu time    0.0033: real time    0.0033
    CHARGE:  cpu time   11.8605: real time   11.9413
    MIXING:  cpu time    0.0363: real time    0.0363
    --------------------------------------------
      LOOP:  cpu time  156.1178: real time  157.8273

 eigenvalue-minimisations  :  6235
 total energy-change (2. order) :-0.1760467E+00  (-0.4496468E-01)
 number of electron     652.0000049 magnetization       2.3330619
 augmentation part       20.2998726 magnetization       0.5557351

 Broyden mixing:
  rms(total) = 0.23525E+01    rms(broyden)= 0.23522E+01
  rms(prec ) = 0.23692E+01
  weight for this iteration     100.00

 eigenvalues of (default mixing * dielectric matrix)
  average eigenvalue GAMMA=   0.7239
  2.1533  0.6187  0.6187  0.5088  0.2592  0.4544  0.4544

 Free energy of the ion-electron system (eV)
  ---------------------------------------------------
  alpha Z        PSCENC =       197.81766084
  Ewald energy   TEWEN  =    198073.17844910
  -Hartree energ DENC   =   -218280.98067760
  -exchange      EXHF   =         0.00000000
  -V(xc)+E(xc)   XCENC  =      2195.03205404
  PAW double counting   =     65905.92556769   -65964.36408022
  entropy T*S    EENTRO =        -0.01300006
  eigenvalues    EBANDS =     -8533.95921862
  atomic energy  EATOM  =     24957.49957450
  Solvation  Ediel_sol  =         0.00000000
  ---------------------------------------------------
  free energy    TOTEN  =     -1449.86367033 eV

  energy without entropy =    -1449.85067027  energy(sigma->0) =    -1449.85933698


--------------------------------------------------------------------------------------------------------




--------------------------------------- Iteration      1(  13)  ---------------------------------------


    POTLOK:  cpu time    2.2144: real time    2.2815
    SETDIJ:  cpu time    0.0394: real time    0.0395
    EDDIAG:  cpu time   28.2094: real time   28.5182
  RMM-DIIS:  cpu time   97.4228: real time   98.5076
    ORTHCH:  cpu time    3.8410: real time    3.8571
       DOS:  cpu time    0.0076: real time    0.0076
    CHARGE:  cpu time   11.7858: real time   11.9622
    MIXING:  cpu time    0.0483: real time    0.0503
    --------------------------------------------
      LOOP:  cpu time  143.5687: real time  145.2241

 eigenvalue-minimisations  :  5552
 total energy-change (2. order) :-0.1057643E+01  (-0.2014865E+00)
 number of electron     652.0000049 magnetization       2.2965644
 augmentation part       20.4491467 magnetization       0.6257536

 Broyden mixing:
  rms(total) = 0.18236E+01    rms(broyden)= 0.18229E+01
  rms(prec ) = 0.18437E+01
  weight for this iteration     100.00

 eigenvalues of (default mixing * dielectric matrix)
  average eigenvalue GAMMA=   0.8722
  2.0170  1.3403  1.3403  0.5225  0.5225  0.2582  0.4882  0.4882

 Free energy of the ion-electron system (eV)
  ---------------------------------------------------
  alpha Z        PSCENC =       197.81766084
  Ewald energy   TEWEN  =    198073.17844910
  -Hartree energ DENC   =   -218324.02192778
  -exchange      EXHF   =         0.00000000
  -V(xc)+E(xc)   XCENC  =      2195.35801304
  PAW double counting   =     67161.29867614   -67219.13660780
  entropy T*S    EENTRO =         0.01211279
  eigenvalues    EBANDS =     -8492.92726414
  atomic energy  EATOM  =     24957.49957450
  Solvation  Ediel_sol  =         0.00000000
  ---------------------------------------------------
  free energy    TOTEN  =     -1450.92131332 eV

  energy without entropy =    -1450.93342611  energy(sigma->0) =    -1450.92535092


--------------------------------------------------------------------------------------------------------




--------------------------------------- Iteration      1(  14)  ---------------------------------------


    POTLOK:  cpu time    2.2675: real time    2.3293
    SETDIJ:  cpu time    0.0433: real time    0.0434
    EDDIAG:  cpu time   28.2808: real time   28.5371
  RMM-DIIS:  cpu time   95.9896: real time   96.6880
    ORTHCH:  cpu time    3.8589: real time    3.8630
       DOS:  cpu time    0.0035: real time    0.0035
    CHARGE:  cpu time   11.8300: real time   11.9581
    MIXING:  cpu time    0.0434: real time    0.0474
    --------------------------------------------
      LOOP:  cpu time  142.3171: real time  143.4698

 eigenvalue-minimisations  :  5469
 total energy-change (2. order) : 0.1323904E+00  (-0.2550761E+00)
 number of electron     652.0000049 magnetization       2.2718668
 augmentation part       20.6206094 magnetization       0.6179510

 Broyden mixing:
  rms(total) = 0.12682E+01    rms(broyden)= 0.12678E+01
  rms(prec ) = 0.13119E+01
  weight for this iteration     100.00

 eigenvalues of (default mixing * dielectric matrix)
  average eigenvalue GAMMA=   0.8814
  1.7876  1.7876  1.2839  0.5395  0.5395  0.6032  0.6032  0.2584  0.5299

 Free energy of the ion-electron system (eV)
  ---------------------------------------------------
  alpha Z        PSCENC =       197.81766084
  Ewald energy   TEWEN  =    198073.17844910
  -Hartree energ DENC   =   -218387.96222064
  -exchange      EXHF   =         0.00000000
  -V(xc)+E(xc)   XCENC  =      2196.79511996
  PAW double counting   =     68305.39941934   -68362.11832942
  entropy T*S    EENTRO =         0.00737536
[...]
      5.59001     20.14326     17.25928         0.000716     -0.020840      0.048582
      9.30708     15.62842     10.43385         0.000590     -0.051070     -0.003023
      9.30731     18.24073     11.51620         0.001771      0.035555      0.031587
      8.06995     13.50079     10.57319         0.000349     -0.046075      0.016301
      9.30704     14.20061     10.43407         0.001044      0.049609     -0.002129
      8.07014     12.18150     11.11912         0.002806      0.044166     -0.021330
      9.30709     11.58837     11.51681        -0.000101     -0.035531      0.032491
     10.54418     10.18295     13.12076         0.000775     -0.027264      0.058959
     11.77353     11.56764     20.20072         0.006196     -0.023315     -0.018391
     10.54428      9.63637     14.44080        -0.000148      0.016547     -0.055942
     11.78106     10.57885     12.52685         0.003927      0.034316     -0.039543
     10.54441      9.62866     17.26745        -0.000798      0.019476      0.044007
     11.78341      9.49515     16.56823        -0.000902     -0.001871     -0.044858
     10.54460     12.15899     20.60721         0.000049      0.033221      0.018087
     10.54447     10.16801     18.58908         0.000469     -0.020198     -0.036858
     10.54464     16.34659     21.14771         0.000925      0.021354     -0.002593
      9.30754     19.25013     12.52633        -0.003721     -0.034592     -0.040137
     11.74834     14.20214     21.28509        -0.013875      0.045439      0.007879
     11.78119     14.20049     10.43394        -0.000145      0.049652     -0.001724
      8.07003     16.32846     10.57251         0.002060      0.046259      0.016773
     10.54456     19.66072     18.58920         0.000513      0.021608     -0.037338
     10.54464     17.67097     20.60863        -0.000511     -0.032400      0.014956
     11.77365     18.26215     20.20181         0.004414      0.021117     -0.018382
     10.54453     20.19978     17.26739        -0.000285     -0.020535      0.043662
     10.54429     17.64730     11.12038        -0.000243     -0.058003     -0.028396
     11.78141     19.26205     19.18389        -0.002144     -0.020205      0.022295
     10.54451     20.19212     14.44062        -0.000378     -0.016561     -0.055433
     11.78355     20.33323     16.56813        -0.001433      0.000656     -0.045631
     11.78270     20.33147     15.13982         0.000769     -0.000271      0.039699
     10.54442     19.64566     13.12057         0.000263      0.027881      0.057486
     11.78126     19.24984     12.52664         0.003818     -0.033706     -0.039306
     10.54421     16.32788     10.57309         0.000196      0.060177      0.022134
     11.78125     15.62827     10.43390        -0.000270     -0.050407     -0.002384
     11.78128     18.24047     11.51652         0.000766      0.035468      0.031643
     10.54410     13.50095     10.57337        -0.000266     -0.057469      0.021261
     11.74830     15.62750     21.28577        -0.007603     -0.043991      0.007043
      2.97505     16.27113     21.06112         0.010379      0.043711     -0.014082
      5.74259     13.55789     21.06106        -0.009749     -0.043502     -0.012228
      5.74254     16.27118     21.06156        -0.008700      0.041864     -0.012905
      2.97493     13.55783     21.06087         0.011777     -0.042916     -0.014182
      4.35851     14.91262     23.41998         0.001812      0.000685     -0.202526
      4.35879     14.91443     21.22368        -0.001840      0.000115      0.179348
 -----------------------------------------------------------------------------------
    total drift:                                0.001709      0.004424     -0.000910


--------------------------------------------------------------------------------------------------------



  FREE ENERGIE OF THE ION-ELECTRON SYSTEM (eV)
  ---------------------------------------------------
  free  energy   TOTEN  =     -1450.73754764 eV

  energy  without entropy=    -1450.70620770  energy(sigma->0) =    -1450.72710100
 


--------------------------------------------------------------------------------------------------------


    POTLOK:  cpu time    2.2815: real time    2.3322


--------------------------------------------------------------------------------------------------------


 stress matrix after NEB project (eV)
      0.00000      0.00000      0.00000
      0.00000      0.00000      0.00000
      0.00000      0.00000      0.00000
  FORCES: max atom, RMS     0.202535    0.053006
  FORCE total and by dimension    0.670482    0.202526
  Stress total and by dimension    0.000000    0.000000
     LOOP+:  cpu time 7779.0776: real time 7933.1748
    4ORBIT:  cpu time    0.0000: real time    0.0000
 


 total charge     
 
# of ion       s       p       d       tot
------------------------------------------
    1        0.864   1.780   0.000   2.644
    2        0.864   1.779   0.000   2.643
    3        0.864   1.780   0.000   2.644
    4        0.864   1.780   0.000   2.644
    5        0.864   1.780   0.000   2.644
    6        0.864   1.779   0.000   2.643
    7        0.864   1.779   0.000   2.643
    8        0.867   1.791   0.000   2.657
    9        0.864   1.780   0.000   2.643
   10        0.864   1.779   0.000   2.643
   11        0.865   1.784   0.000   2.649
   12        0.868   1.799   0.000   2.667
   13        0.865   1.788   0.000   2.653
   14        0.874   1.821   0.000   2.695
   15        0.868   1.799   0.000   2.667
   16        0.864   1.780   0.000   2.643
   17        0.865   1.784   0.000   2.649
   18        0.865   1.789   0.000   2.654
   19        0.864   1.780   0.000   2.644
   20        0.865   1.780   0.000   2.644
   21        0.863   1.784   0.000   2.647
   22        0.864   1.780   0.000   2.644
   23        0.864   1.781   0.000   2.645
   24        0.864   1.780   0.000   2.644
   25        0.864   1.780   0.000   2.644
   26        0.864   1.780   0.000   2.645
   27        0.864   1.780   0.000   2.644
   28        0.867   1.791   0.000   2.657
   29        0.864   1.780   0.000   2.644
   30        0.864   1.780   0.000   2.645
   31        0.864   1.781   0.000   2.645
   32        0.864   1.780   0.000   2.644
   33        0.864   1.780   0.000   2.645
   34        0.864   1.782   0.000   2.646
   35        0.865   1.782   0.000   2.647
   36        0.864   1.781   0.000   2.645
   37        0.864   1.780   0.000   2.644
   38        0.864   1.780   0.000   2.644
   39        0.865   1.788   0.000   2.653
   40        0.857   1.751   0.000   2.609
   41        0.864   1.780   0.000   2.644
   42        0.852   1.775   0.000   2.627
   43        0.863   1.784   0.000   2.647
   44        0.857   1.751   0.000   2.609
   45        0.864   1.780   0.000   2.644
   46        0.865   1.780   0.000   2.645
   47        0.865   1.789   0.000   2.654
   48        0.852   1.775   0.000   2.627
   49        0.864   1.782   0.000   2.646
   50        0.865   1.782   0.000   2.647
   51        0.864   1.780   0.000   2.644
   52        0.864   1.780   0.000   2.645
   53        0.864   1.781   0.000   2.645
   54        0.861   1.764   0.000   2.626
   55        0.864   1.780   0.000   2.644
   56        0.864   1.780   0.000   2.644
   57        0.864   1.780   0.000   2.644
   58        0.863   1.784   0.000   2.647
   59        0.868   1.799   0.000   2.667
   60        0.857   1.751   0.000   2.608
   61        0.861   1.764   0.000   2.626
   62        0.864   1.780   0.000   2.644
   63        0.864   1.780   0.000   2.644
   64        0.864   1.780   0.000   2.644
   65        0.864   1.780   0.000   2.645
   66        0.864   1.782   0.000   2.646
   67        0.874   1.822   0.000   2.695
   68        0.864   1.780   0.000   2.644
   69        0.865   1.780   0.000   2.645
   70        0.864   1.779   0.000   2.643
   71        0.857   1.751   0.000   2.608
   72        0.863   1.784   0.000   2.647
   73        0.865   1.784   0.000   2.649
   74        0.868   1.799   0.000   2.667
   75        0.865   1.788   0.000   2.653
   76        0.864   1.780   0.000   2.644
   77        0.864   1.779   0.000   2.643
   78        0.865   1.788   0.000   2.653
   79        0.865   1.779   0.000   2.643
   80        0.864   1.779   0.000   2.643
   81        0.865   1.784   0.000   2.649
   82        0.864   1.782   0.000   2.646
   83        0.864   1.780   0.000   2.644
   84        0.864   1.780   0.000   2.644
   85        0.864   1.780   0.000   2.645
   86        0.864   1.780   0.000   2.644
   87        0.864   1.781   0.000   2.645
   88        0.864   1.780   0.000   2.644
   89        0.864   1.780   0.000   2.644
   90        0.864   1.780   0.000   2.644
   91        0.864   1.780   0.000   2.644
   92        0.864   1.780   0.000   2.644
   93        0.864   1.780   0.000   2.644
   94        0.864   1.780   0.000   2.644
   95        0.864   1.779   0.000   2.643
   96        0.864   1.779   0.000   2.643
   97        0.864   1.781   0.000   2.645
   98        0.864   1.780   0.000   2.643
   99        0.867   1.791   0.000   2.657
  100        0.864   1.780   0.000   2.643
  101        0.865   1.779   0.000   2.643
  102        0.874   1.821   0.000   2.695
  103        0.869   1.810   0.000   2.679
  104        0.866   1.792   0.000   2.657
  105        0.874   1.821   0.000   2.695
  106        0.871   1.803   0.000   2.673
  107        0.864   1.779   0.000   2.643
  108        0.867   1.791   0.000   2.657
  109        0.866   1.792   0.000   2.657
  110        0.864   1.779   0.000   2.643
  111        0.864   1.779   0.000   2.643
  112        0.865   1.779   0.000   2.643
  113        0.864   1.780   0.000   2.644
  114        0.864   1.779   0.000   2.643
  115        0.869   1.810   0.000   2.679
  116        0.864   1.780   0.000   2.644
  117        0.864   1.780   0.000   2.644
  118        0.864   1.780   0.000   2.644
  119        0.865   1.780   0.000   2.645
  120        0.864   1.781   0.000   2.645
  121        0.864   1.780   0.000   2.645
  122        0.864   1.780   0.000   2.645
  123        0.864   1.780   0.000   2.645
  124        0.864   1.781   0.000   2.645
  125        0.864   1.780   0.000   2.645
  126        0.864   1.780   0.000   2.644
  127        0.866   1.792   0.000   2.657
  128        0.864   1.779   0.000   2.643
  129        0.864   1.781   0.000   2.645
  130        0.864   1.780   0.000   2.643
  131        0.864   1.779   0.000   2.643
  132        0.864   1.790   0.000   2.654
  133        0.864   1.780   0.000   2.644
  134        0.871   1.803   0.000   2.673
  135        0.864   1.781   0.000   2.645
  136        0.869   1.810   0.000   2.679
  137        0.864   1.781   0.000   2.645
  138        0.864   1.780   0.000   2.645
  139        0.864   1.780   0.000   2.644
  140        0.864   1.789   0.000   2.653
  141        0.866   1.792   0.000   2.657
  142        0.864   1.779   0.000   2.643
  143        0.864   1.780   0.000   2.644
  144        0.865   1.779   0.000   2.643
  145        0.864   1.779   0.000   2.643
  146        0.864   1.779   0.000   2.643
  147        0.864   1.779   0.000   2.643
  148        0.864   1.780   0.000   2.644
  149        0.864   1.781   0.000   2.645
  150        0.864   1.780   0.000   2.644
  151        0.864   1.781   0.000   2.645
  152        0.864   1.780   0.000   2.645
  153        0.864   1.780   0.000   2.644
  154        0.869   1.810   0.000   2.679
  155        1.240   2.647   0.000   3.887
  156        1.240   2.647   0.000   3.887
  157        1.240   2.647   0.000   3.887
  158        1.240   2.647   0.000   3.887
  159        1.630   3.115   0.000   4.745
  160        0.621   0.914   8.449   9.984
--------------------------------------------------
tot        140.341 289.180   8.449 437.970
 


 magnetization (x)
 
# of ion       s       p       d       tot
------------------------------------------
    1        0.000   0.001   0.000   0.001
    2        0.000   0.001   0.000   0.001
    3        0.000   0.000   0.000   0.000
    4        0.000   0.001   0.000   0.001
    5        0.000   0.000   0.000   0.000
    6        0.000   0.001   0.000   0.001
    7       -0.000   0.000   0.000   0.000
    8        0.000   0.001   0.000   0.001
    9        0.000   0.000   0.000   0.000
   10       -0.000   0.000   0.000   0.000
   11        0.000   0.002   0.000   0.002
   12       -0.000   0.000   0.000   0.000
   13        0.000   0.000   0.000   0.000
   14        0.000   0.001   0.000   0.001
   15       -0.000   0.000   0.000   0.000
   16        0.000   0.000   0.000   0.000
   17        0.000   0.002   0.000   0.002
   18        0.000   0.001   0.000   0.001
   19        0.000   0.000   0.000   0.000
   20        0.000   0.001   0.000   0.001
   21        0.000   0.001   0.000   0.001
   22        0.000   0.001   0.000   0.001
   23        0.000   0.000   0.000   0.000
   24        0.000   0.001   0.000   0.001
   25        0.000   0.000   0.000   0.000
   26        0.000   0.001   0.000   0.001
   27        0.000   0.000   0.000   0.000
   28        0.000   0.001   0.000   0.001
   29        0.000   0.001   0.000   0.001
   30        0.000   0.001   0.000   0.001
   31        0.000   0.000   0.000   0.000
   32        0.000   0.001   0.000   0.001
   33        0.000   0.001   0.000   0.001
   34        0.000   0.001   0.000   0.001
   35        0.000   0.001   0.000   0.001
   36        0.000   0.001   0.000   0.001
   37        0.000   0.000   0.000   0.000
   38        0.000   0.000   0.000   0.000
   39        0.000   0.000   0.000   0.000
   40        0.000   0.001   0.000   0.001
   41        0.000   0.000   0.000   0.001
   42        0.001   0.005   0.000   0.005
   43        0.000   0.001   0.000   0.001
   44        0.000   0.001   0.000   0.001
   45        0.000   0.001   0.000   0.001
   46        0.000   0.001   0.000   0.001
   47        0.000   0.001   0.000   0.001
   48        0.001   0.005   0.000   0.005
   49        0.000   0.001   0.000   0.001
   50        0.000   0.001   0.000   0.001
   51        0.000   0.000   0.000   0.000
   52        0.000   0.001   0.000   0.001
   53        0.000   0.001   0.000   0.001
   54       -0.000   0.001   0.000   0.001
   55        0.000   0.001   0.000   0.001
   56        0.000   0.000   0.000   0.001
   57        0.000   0.001   0.000   0.001
   58        0.000   0.001   0.000   0.001
   59       -0.000   0.000   0.000   0.000
   60        0.000   0.001   0.000   0.001
   61       -0.000   0.001   0.000   0.001
   62        0.000   0.001   0.000   0.001
   63        0.000   0.000   0.000   0.000
   64        0.000   0.001   0.000   0.001
   65        0.000   0.001   0.000   0.001
   66        0.000   0.001   0.000   0.001
   67        0.000   0.001   0.000   0.001
   68        0.000   0.001   0.000   0.001
   69        0.000   0.001   0.000   0.001
   70       -0.000   0.000   0.000   0.000
   71        0.000   0.001   0.000   0.001
   72        0.000   0.001   0.000   0.001
   73        0.000   0.002   0.000   0.002
   74       -0.000   0.000   0.000   0.000
   75        0.000   0.000   0.000   0.000
   76        0.000   0.000   0.000   0.000
   77        0.000   0.001   0.000   0.001
   78        0.000   0.000   0.000   0.000
   79        0.000   0.001   0.000   0.001
   80       -0.000   0.000   0.000   0.000
   81        0.000   0.002   0.000   0.002
   82        0.000   0.001   0.000   0.001
   83        0.000   0.001   0.000   0.001
   84        0.000   0.000   0.000   0.000
   85        0.000   0.001   0.000   0.001
   86        0.000   0.000   0.000   0.000
   87        0.000   0.000   0.000   0.000
   88        0.000   0.000   0.000   0.001
   89        0.000   0.001   0.000   0.001
   90        0.000   0.000   0.000   0.001
   91        0.000   0.000   0.000   0.000
   92        0.000   0.000   0.000   0.000
   93        0.000   0.001   0.000   0.001
   94        0.000   0.001   0.000   0.001
   95        0.000   0.001   0.000   0.001
   96        0.000   0.001   0.000   0.001
   97        0.000   0.000   0.000   0.000
   98        0.000   0.000   0.000   0.000
   99        0.000   0.001   0.000   0.001
  100        0.000   0.000   0.000   0.000
  101        0.000   0.001   0.000   0.001
  102        0.000   0.001   0.000   0.001
  103        0.000   0.001   0.000   0.001
  104        0.000   0.001   0.000   0.001
  105        0.000   0.001   0.000   0.001
  106       -0.000   0.000   0.000  -0.000
  107        0.000   0.000   0.000   0.000
  108        0.000   0.001   0.000   0.001
  109        0.000   0.001   0.000   0.001
  110        0.000   0.001   0.000   0.001
  111        0.000   0.000   0.000   0.000
  112        0.000   0.001   0.000   0.001
  113        0.000   0.000   0.000   0.000
  114        0.000   0.001   0.000   0.001
  115        0.000   0.001   0.000   0.001
  116        0.000   0.000   0.000   0.000
  117        0.000   0.000   0.000   0.000
  118        0.000   0.001   0.000   0.001
  119        0.000   0.001   0.000   0.001
  120        0.000   0.000   0.000   0.000
  121        0.000   0.001   0.000   0.001
  122        0.000   0.001   0.000   0.001
  123        0.000   0.000   0.000   0.000
  124        0.000   0.000   0.000   0.000
  125        0.000   0.001   0.000   0.001
  126        0.000   0.001   0.000   0.001
  127        0.000   0.001   0.000   0.001
  128        0.000   0.000   0.000   0.000
  129        0.000   0.000   0.000   0.000
  130        0.000   0.001   0.000   0.001
  131        0.000   0.000   0.000   0.000
  132        0.000   0.002   0.000   0.002
  133       -0.000   0.000   0.000   0.000
  134       -0.000   0.000   0.000  -0.000
  135        0.000   0.000   0.000   0.000
  136        0.000   0.001   0.000   0.001
  137        0.000   0.000   0.000   0.000
  138        0.000   0.001   0.000   0.001
  139       -0.000   0.000   0.000   0.000
  140        0.000   0.002   0.000   0.002
  141        0.000   0.001   0.000   0.001
  142        0.000   0.001   0.000   0.001
  143        0.000   0.000   0.000   0.000
  144        0.000   0.001   0.000   0.001
  145        0.000   0.000   0.000   0.000
  146        0.000   0.000   0.000   0.000
  147        0.000   0.001   0.000   0.001
  148        0.000   0.001   0.000   0.001
  149        0.000   0.000   0.000   0.000
  150        0.000   0.001   0.000   0.001
  151        0.000   0.000   0.000   0.000
  152        0.000   0.001   0.000   0.001
  153        0.000   0.001   0.000   0.001
  154        0.000   0.001   0.000   0.001
  155        0.002   0.013   0.000   0.014
  156        0.002   0.013   0.000   0.014
  157        0.002   0.013   0.000   0.014
  158        0.002   0.013   0.000   0.014
  159        0.012   1.067   0.000   1.079
  160        0.003   0.027   0.271   0.301
--------------------------------------------------
tot          0.027   1.256   0.271   1.553
 

 total amount of memory used by VASP MPI-rank0   426024. kBytes
=======================================================================

   base      :      30000. kBytes
   nonlr-proj:      26819. kBytes
   fftplans  :      44301. kBytes
   grid      :     126424. kBytes
   one-center:        995. kBytes
   wavefun   :     197485. kBytes
 
  
  
 General timing and accounting informations for this job:
 ========================================================
  
                  Total CPU time used (sec):     7886.562
                            User time (sec):     7642.815
                          System time (sec):      243.748
                         Elapsed time (sec):     8132.303
  
                   Maximum memory used (kb):      603544.
                   Average memory used (kb):           0.
  
                          Minor page faults:      1355187
                          Major page faults:           29
                 Voluntary context switches:        64625
