 vasp.5.3.3 18Dez12 (build Jun 04 2015 20:50:43) complex                        
  
 executed on             LinuxIFC date 2018.03.27  14:55:19
 running on    4 total cores
 distrk:  each k-point on    4 cores,    1 groups
 distr:  one band on NCORES_PER_BAND=   1 cores,    4 groups


--------------------------------------------------------------------------------------------------------


 INCAR:
 POTCAR:    PAW_PBE Si 05Jan2001                  
 POTCAR:    PAW_PBE Si 05Jan2001                  
   VRHFIN =Si: s2p2                                                             
   LEXCH  = PE                                                                  
   EATOM  =   103.0669 eV,    7.5752 Ry                                         
                                                                                
   TITEL  = PAW_PBE Si 05Jan2001                                                
   LULTRA =        F    use ultrasoft PP ?                                      
   IUNSCR =        1    unscreen: 0-lin 1-nonlin 2-no                           
   RPACOR =    1.500    partial core radius                                     
   POMASS =   28.085; ZVAL   =    4.000    mass and valenz                      
   RCORE  =    1.900    outmost cutoff radius                                   
   RWIGS  =    2.480; RWIGS  =    1.312    wigner-seitz radius (au A)           
   ENMAX  =  245.345; ENMIN  =  184.009 eV                                      
   ICORE  =        2    local potential                                         
   LCOR   =        T    correct aug charges                                     
   LPAW   =        T    paw PP                                                  
   EAUG   =  322.069                                                            
   DEXC   =    0.000                                                            
   RMAX   =    1.950    core radius for proj-oper                               
   RAUG   =    1.300    factor for augmentation sphere                          
   RDEP   =    1.993    radius for radial grids                                 
   RDEPT  =    1.837    core radius for aug-charge                              
                                                                                
   Atomic configuration                                                         
    6 entries                                                                   
     n  l   j            E        occ.                                          
     1  0  0.50     -1785.8828   2.0000                                         
     2  0  0.50      -139.4969   2.0000                                         
     2  1  1.50       -95.5546   6.0000                                         
     3  0  0.50       -10.8127   2.0000                                         
     3  1  0.50        -4.0811   2.0000                                         
     3  2  1.50        -4.0817   0.0000                                         
   Description                                                                  
     l       E           TYP  RCUT    TYP  RCUT                                 
     0    -10.8127223     23  1.900                                             
     0     -7.6451159     23  1.900                                             
     1     -4.0811372     23  1.900                                             
     1      2.4879257     23  1.900                                             
     2     -4.0817478      7  1.900                                             
  local pseudopotential read in
  partial core-charges read in
  partial kinetic energy density read in
  atomic valenz-charges read in
  non local Contribution for L=           0  read in
    real space projection operators read in
  non local Contribution for L=           0  read in
    real space projection operators read in
  non local Contribution for L=           1  read in
    real space projection operators read in
  non local Contribution for L=           1  read in
    real space projection operators read in
    PAW grid and wavefunctions read in
 
   number of l-projection  operators is LMAX  =           4
   number of lm-projection operators is LMMAX =           8
 
  PAW_PBE Si 05Jan2001                  :
 energy of atom  1       EATOM= -103.0669
 kinetic energy error for atom=    0.0056 (will be added to EATOM!!)
 
 
 POSCAR: Si                                      
  positions in direct lattice
  No initial velocities read in
 exchange correlation table for  LEXCH =        8
   RHO(1)=    0.500       N(1)  =     2000
   RHO(2)=  100.500       N(2)  =     4000

 VTST: version 3.1, (03/28/14)

 CHAIN: initializing optimizer
 
 OPT: Using VASP Dynamics algorithm
 CHAIN: Read ICHAIN            0
 
 POSCAR: Si                                      
  positions in direct lattice
  No initial velocities read in
 


--------------------------------------------------------------------------------------------------------


 ion  position               nearest neighbor table
   1  0.000  0.000  0.000-   6 2.35   8 2.35  13 2.35  15 2.35
   2  0.000  0.500  0.250-   5 2.35   6 2.35   7 2.35   8 2.35
   3  0.500  0.000  0.250-   5 2.35   6 2.35   7 2.35   8 2.35
   4  0.500  0.500  0.000-   6 2.35   8 2.35  13 2.35  15 2.35
   5  0.750  0.250  0.375-   2 2.35   3 2.35   9 2.35  12 2.35
   6  0.250  0.250  0.125-   1 2.35   2 2.35   3 2.35   4 2.35
   7  0.250  0.750  0.375-   2 2.35   3 2.35   9 2.35  12 2.35
   8  0.750  0.750  0.125-   1 2.35   2 2.35   3 2.35   4 2.35
   9  0.000  0.000  0.500-   5 2.35   7 2.35  14 2.35  16 2.35
  10  0.000  0.500  0.750-  13 2.35  14 2.35  15 2.35  16 2.35
  11  0.500  0.000  0.750-  13 2.35  14 2.35  15 2.35  16 2.35
  12  0.500  0.500  0.500-   5 2.35   7 2.35  14 2.35  16 2.35
  13  0.750  0.250  0.875-   1 2.35   4 2.35  10 2.35  11 2.35
  14  0.250  0.250  0.625-   9 2.35  10 2.35  11 2.35  12 2.35
  15  0.250  0.750  0.875-   1 2.35   4 2.35  10 2.35  11 2.35
  16  0.750  0.750  0.625-   9 2.35  10 2.35  11 2.35  12 2.35
 
  LATTYP: Found a simple tetragonal cell.
 ALAT       =     5.4307000000
 C/A-ratio  =     2.0000000000
  
  Lattice vectors:
  
 A1 = (   5.4307000000,   0.0000000000,   0.0000000000)
 A2 = (   0.0000000000,   5.4307000000,   0.0000000000)
 A3 = (   0.0000000000,   0.0000000000,  10.8614000000)


Analysis of symmetry for initial positions (statically):
=====================================================================
 Subroutine PRICEL returns following result:
 
  LATTYP: Found a face centered cubic cell.
 ALAT       =     5.4307000000
  
  Lattice vectors:
  
 A1 = (   2.7153500000,   2.7153500000,   0.0000000000)
 A2 = (   2.7153500000,   0.0000000000,  -2.7153500000)
 A3 = (   0.0000000000,   2.7153500000,  -2.7153500000)
 
   8 primitive cells build up your supercell.
 

 Routine SETGRP: Setting up the symmetry group for a 
 simple tetragonal supercell.


 Subroutine GETGRP returns: Found 16 space group operations
 (whereof  8 operations were pure point group operations)
 out of a pool of 16 trial point group operations.


The static configuration has the point symmetry D_2d.
 The point group associated with its full space group is D_4h.


Analysis of symmetry for dynamics (positions and initial velocities):
=====================================================================
 Subroutine PRICEL returns following result:
 
  LATTYP: Found a face centered cubic cell.
 ALAT       =     5.4307000000
  
  Lattice vectors:
  
 A1 = (   2.7153500000,   2.7153500000,   0.0000000000)
 A2 = (   2.7153500000,   0.0000000000,  -2.7153500000)
 A3 = (   0.0000000000,   2.7153500000,  -2.7153500000)
 
   8 primitive cells build up your supercell.
 

 Routine SETGRP: Setting up the symmetry group for a 
 simple tetragonal supercell.


 Subroutine GETGRP returns: Found 16 space group operations
 (whereof  8 operations were pure point group operations)
 out of a pool of 16 trial point group operations.


The dynamic configuration has the point symmetry D_2d.
 The point group associated with its full space group is D_4h.


 irot  :   1
 --------------------------------------------------------------------
 isymop:   1   0   0
           0   1   0
           0   0   1

 gtrans:     0.0000000     0.0000000     0.0000000

 ptrans:     0.0000000     0.0000000     0.0000000
 rotmap:
 (   1->   1)  (   2->   2)  (   3->   3)  (   4->   4)  (   5->   5) 
 (   6->   6)  (   7->   7)  (   8->   8)  (   9->   9)  (  10->  10) 
 (  11->  11)  (  12->  12)  (  13->  13)  (  14->  14)  (  15->  15) 
 (  16->  16) 

 ptrans:     0.5000000     0.5000000     0.0000000
 rotmap:
 (   1->   4)  (   2->   3)  (   3->   2)  (   4->   1)  (   5->   7) 
 (   6->   8)  (   7->   5)  (   8->   6)  (   9->  12)  (  10->  11) 
 (  11->  10)  (  12->   9)  (  13->  15)  (  14->  16)  (  15->  13) 
 (  16->  14) 

 ptrans:     0.5000000     0.0000000     0.7500000
 rotmap:
 (   1->  11)  (   2->   4)  (   3->   1)  (   4->  10)  (   5->   6) 
 (   6->  13)  (   7->   8)  (   8->  15)  (   9->   3)  (  10->  12) 
 (  11->   9)  (  12->   2)  (  13->  14)  (  14->   5)  (  15->  16) 
 (  16->   7) 

 ptrans:     0.0000000     0.5000000     0.7500000
 rotmap:
 (   1->  10)  (   2->   1)  (   3->   4)  (   4->  11)  (   5->   8) 
 (   6->  15)  (   7->   6)  (   8->  13)  (   9->   2)  (  10->   9) 
 (  11->  12)  (  12->   3)  (  13->  16)  (  14->   7)  (  15->  14) 
 (  16->   5) 

 ptrans:     0.0000000     0.0000000     0.5000000
 rotmap:
 (   1->   9)  (   2->  10)  (   3->  11)  (   4->  12)  (   5->  13) 
 (   6->  14)  (   7->  15)  (   8->  16)  (   9->   1)  (  10->   2) 
 (  11->   3)  (  12->   4)  (  13->   5)  (  14->   6)  (  15->   7) 
 (  16->   8) 

 ptrans:     0.5000000     0.5000000     0.5000000
 rotmap:
 (   1->  12)  (   2->  11)  (   3->  10)  (   4->   9)  (   5->  15) 
 (   6->  16)  (   7->  13)  (   8->  14)  (   9->   4)  (  10->   3) 
 (  11->   2)  (  12->   1)  (  13->   7)  (  14->   8)  (  15->   5) 
 (  16->   6) 

 ptrans:     0.5000000     0.0000000     0.2500000
 rotmap:
 (   1->   3)  (   2->  12)  (   3->   9)  (   4->   2)  (   5->  14) 
 (   6->   5)  (   7->  16)  (   8->   7)  (   9->  11)  (  10->   4) 
 (  11->   1)  (  12->  10)  (  13->   6)  (  14->  13)  (  15->   8) 
 (  16->  15) 

 ptrans:     0.0000000     0.5000000     0.2500000
 rotmap:
 (   1->   2)  (   2->   9)  (   3->  12)  (   4->   3)  (   5->  16) 
 (   6->   7)  (   7->  14)  (   8->   5)  (   9->  10)  (  10->   1) 
 (  11->   4)  (  12->  11)  (  13->   8)  (  14->  15)  (  15->   6) 
 (  16->  13) 


 irot  :   2
 --------------------------------------------------------------------
 isymop:   0   1   0
          -1   0   0
           0   0  -1

 gtrans:     0.0000000     0.0000000     0.0000000

 ptrans:     0.0000000     0.0000000     0.0000000
 rotmap:
 (   1->   1)  (   2->  11)  (   3->  10)  (   4->   4)  (   5->  14) 
 (   6->  15)  (   7->  16)  (   8->  13)  (   9->   9)  (  10->   3) 
 (  11->   2)  (  12->  12)  (  13->   6)  (  14->   7)  (  15->   8) 
 (  16->   5) 

 ptrans:     0.5000000     0.5000000     0.0000000
 rotmap:
 (   1->   4)  (   2->  10)  (   3->  11)  (   4->   1)  (   5->  16) 
 (   6->  13)  (   7->  14)  (   8->  15)  (   9->  12)  (  10->   2) 
 (  11->   3)  (  12->   9)  (  13->   8)  (  14->   5)  (  15->   6) 
 (  16->   7) 

 ptrans:     0.5000000     0.0000000     0.7500000
 rotmap:
 (   1->  11)  (   2->   9)  (   3->  12)  (   4->  10)  (   5->   5) 
 (   6->  16)  (   7->   7)  (   8->  14)  (   9->   3)  (  10->   1) 
 (  11->   4)  (  12->   2)  (  13->  13)  (  14->   8)  (  15->  15) 
 (  16->   6) 

 ptrans:     0.0000000     0.5000000     0.7500000
 rotmap:
 (   1->  10)  (   2->  12)  (   3->   9)  (   4->  11)  (   5->   7) 
 (   6->  14)  (   7->   5)  (   8->  16)  (   9->   2)  (  10->   4) 
 (  11->   1)  (  12->   3)  (  13->  15)  (  14->   6)  (  15->  13) 
 (  16->   8) 

 ptrans:     0.0000000     0.0000000     0.5000000
 rotmap:
 (   1->   9)  (   2->   3)  (   3->   2)  (   4->  12)  (   5->   6) 
 (   6->   7)  (   7->   8)  (   8->   5)  (   9->   1)  (  10->  11) 
 (  11->  10)  (  12->   4)  (  13->  14)  (  14->  15)  (  15->  16) 
 (  16->  13) 

 ptrans:     0.5000000     0.5000000     0.5000000
 rotmap:
 (   1->  12)  (   2->   2)  (   3->   3)  (   4->   9)  (   5->   8) 
 (   6->   5)  (   7->   6)  (   8->   7)  (   9->   4)  (  10->  10) 
 (  11->  11)  (  12->   1)  (  13->  16)  (  14->  13)  (  15->  14) 
 (  16->  15) 

 ptrans:     0.5000000     0.0000000     0.2500000
 rotmap:
 (   1->   3)  (   2->   1)  (   3->   4)  (   4->   2)  (   5->  13) 
 (   6->   8)  (   7->  15)  (   8->   6)  (   9->  11)  (  10->   9) 
 (  11->  12)  (  12->  10)  (  13->   5)  (  14->  16)  (  15->   7) 
 (  16->  14) 

 ptrans:     0.0000000     0.5000000     0.2500000
 rotmap:
 (   1->   2)  (   2->   4)  (   3->   1)  (   4->   3)  (   5->  15) 
 (   6->   6)  (   7->  13)  (   8->   8)  (   9->  10)  (  10->  12) 
 (  11->   9)  (  12->  11)  (  13->   7)  (  14->  14)  (  15->   5) 
 (  16->  16) 


 irot  :   3
 --------------------------------------------------------------------
 isymop:  -1   0   0
           0  -1   0
           0   0   1

 gtrans:     0.0000000     0.0000000     0.0000000

 ptrans:     0.0000000     0.0000000     0.0000000
 rotmap:
 (   1->   1)  (   2->   2)  (   3->   3)  (   4->   4)  (   5->   7) 
 (   6->   8)  (   7->   5)  (   8->   6)  (   9->   9)  (  10->  10) 
 (  11->  11)  (  12->  12)  (  13->  15)  (  14->  16)  (  15->  13) 
 (  16->  14) 

 ptrans:     0.5000000     0.5000000     0.0000000
 rotmap:
 (   1->   4)  (   2->   3)  (   3->   2)  (   4->   1)  (   5->   5) 
 (   6->   6)  (   7->   7)  (   8->   8)  (   9->  12)  (  10->  11) 
 (  11->  10)  (  12->   9)  (  13->  13)  (  14->  14)  (  15->  15) 
 (  16->  16) 

 ptrans:     0.5000000     0.0000000     0.7500000
 rotmap:
 (   1->  11)  (   2->   4)  (   3->   1)  (   4->  10)  (   5->   8) 
 (   6->  15)  (   7->   6)  (   8->  13)  (   9->   3)  (  10->  12) 
 (  11->   9)  (  12->   2)  (  13->  16)  (  14->   7)  (  15->  14) 
 (  16->   5) 

 ptrans:     0.0000000     0.5000000     0.7500000
 rotmap:
 (   1->  10)  (   2->   1)  (   3->   4)  (   4->  11)  (   5->   6) 
 (   6->  13)  (   7->   8)  (   8->  15)  (   9->   2)  (  10->   9) 
 (  11->  12)  (  12->   3)  (  13->  14)  (  14->   5)  (  15->  16) 
 (  16->   7) 

 ptrans:     0.0000000     0.0000000     0.5000000
 rotmap:
 (   1->   9)  (   2->  10)  (   3->  11)  (   4->  12)  (   5->  15) 
 (   6->  16)  (   7->  13)  (   8->  14)  (   9->   1)  (  10->   2) 
 (  11->   3)  (  12->   4)  (  13->   7)  (  14->   8)  (  15->   5) 
 (  16->   6) 

 ptrans:     0.5000000     0.5000000     0.5000000
 rotmap:
 (   1->  12)  (   2->  11)  (   3->  10)  (   4->   9)  (   5->  13) 
 (   6->  14)  (   7->  15)  (   8->  16)  (   9->   4)  (  10->   3) 
 (  11->   2)  (  12->   1)  (  13->   5)  (  14->   6)  (  15->   7) 
 (  16->   8) 

 ptrans:     0.5000000     0.0000000     0.2500000
 rotmap:
 (   1->   3)  (   2->  12)  (   3->   9)  (   4->   2)  (   5->  16) 
 (   6->   7)  (   7->  14)  (   8->   5)  (   9->  11)  (  10->   4) 
 (  11->   1)  (  12->  10)  (  13->   8)  (  14->  15)  (  15->   6) 
 (  16->  13) 

 ptrans:     0.0000000     0.5000000     0.2500000
 rotmap:
 (   1->   2)  (   2->   9)  (   3->  12)  (   4->   3)  (   5->  14) 
 (   6->   5)  (   7->  16)  (   8->   7)  (   9->  10)  (  10->   1) 
 (  11->   4)  (  12->  11)  (  13->   6)  (  14->  13)  (  15->   8) 
 (  16->  15) 


 irot  :   4
 --------------------------------------------------------------------
 isymop:   0  -1   0
           1   0   0
           0   0  -1

 gtrans:     0.0000000     0.0000000     0.0000000

 ptrans:     0.0000000     0.0000000     0.0000000
 rotmap:
 (   1->   1)  (   2->  11)  (   3->  10)  (   4->   4)  (   5->  16) 
 (   6->  13)  (   7->  14)  (   8->  15)  (   9->   9)  (  10->   3) 
 (  11->   2)  (  12->  12)  (  13->   8)  (  14->   5)  (  15->   6) 
 (  16->   7) 

 ptrans:     0.5000000     0.5000000     0.0000000
 rotmap:
 (   1->   4)  (   2->  10)  (   3->  11)  (   4->   1)  (   5->  14) 
 (   6->  15)  (   7->  16)  (   8->  13)  (   9->  12)  (  10->   2) 
 (  11->   3)  (  12->   9)  (  13->   6)  (  14->   7)  (  15->   8) 
 (  16->   5) 

 ptrans:     0.5000000     0.0000000     0.7500000
 rotmap:
 (   1->  11)  (   2->   9)  (   3->  12)  (   4->  10)  (   5->   7) 
 (   6->  14)  (   7->   5)  (   8->  16)  (   9->   3)  (  10->   1) 
 (  11->   4)  (  12->   2)  (  13->  15)  (  14->   6)  (  15->  13) 
 (  16->   8) 

 ptrans:     0.0000000     0.5000000     0.7500000
 rotmap:
 (   1->  10)  (   2->  12)  (   3->   9)  (   4->  11)  (   5->   5) 
 (   6->  16)  (   7->   7)  (   8->  14)  (   9->   2)  (  10->   4) 
 (  11->   1)  (  12->   3)  (  13->  13)  (  14->   8)  (  15->  15) 
 (  16->   6) 

 ptrans:     0.0000000     0.0000000     0.5000000
 rotmap:
 (   1->   9)  (   2->   3)  (   3->   2)  (   4->  12)  (   5->   8) 
 (   6->   5)  (   7->   6)  (   8->   7)  (   9->   1)  (  10->  11) 
 (  11->  10)  (  12->   4)  (  13->  16)  (  14->  13)  (  15->  14) 
 (  16->  15) 

 ptrans:     0.5000000     0.5000000     0.5000000
 rotmap:
 (   1->  12)  (   2->   2)  (   3->   3)  (   4->   9)  (   5->   6) 
 (   6->   7)  (   7->   8)  (   8->   5)  (   9->   4)  (  10->  10) 
 (  11->  11)  (  12->   1)  (  13->  14)  (  14->  15)  (  15->  16) 
 (  16->  13) 

 ptrans:     0.5000000     0.0000000     0.2500000
 rotmap:
 (   1->   3)  (   2->   1)  (   3->   4)  (   4->   2)  (   5->  15) 
 (   6->   6)  (   7->  13)  (   8->   8)  (   9->  11)  (  10->   9) 
 (  11->  12)  (  12->  10)  (  13->   7)  (  14->  14)  (  15->   5) 
 (  16->  16) 

 ptrans:     0.0000000     0.5000000     0.2500000
 rotmap:
 (   1->   2)  (   2->   4)  (   3->   1)  (   4->   3)  (   5->  13) 
 (   6->   8)  (   7->  15)  (   8->   6)  (   9->  10)  (  10->  12) 
 (  11->   9)  (  12->  11)  (  13->   5)  (  14->  16)  (  15->   7) 
 (  16->  14) 


 irot  :   5
 --------------------------------------------------------------------
 isymop:  -1   0   0
           0   1   0
           0   0  -1

 gtrans:     0.0000000     0.0000000     0.0000000

 ptrans:     0.0000000     0.0000000     0.0000000
 rotmap:
 (   1->   1)  (   2->  10)  (   3->  11)  (   4->   4)  (   5->  14) 
 (   6->  13)  (   7->  16)  (   8->  15)  (   9->   9)  (  10->   2) 
 (  11->   3)  (  12->  12)  (  13->   6)  (  14->   5)  (  15->   8) 
 (  16->   7) 

 ptrans:     0.5000000     0.5000000     0.0000000
 rotmap:
 (   1->   4)  (   2->  11)  (   3->  10)  (   4->   1)  (   5->  16) 
 (   6->  15)  (   7->  14)  (   8->  13)  (   9->  12)  (  10->   3) 
 (  11->   2)  (  12->   9)  (  13->   8)  (  14->   7)  (  15->   6) 
 (  16->   5) 

 ptrans:     0.5000000     0.0000000     0.7500000
 rotmap:
 (   1->  11)  (   2->  12)  (   3->   9)  (   4->  10)  (   5->   5) 
 (   6->  14)  (   7->   7)  (   8->  16)  (   9->   3)  (  10->   4) 
 (  11->   1)  (  12->   2)  (  13->  13)  (  14->   6)  (  15->  15) 
 (  16->   8) 

 ptrans:     0.0000000     0.5000000     0.7500000
 rotmap:
 (   1->  10)  (   2->   9)  (   3->  12)  (   4->  11)  (   5->   7) 
 (   6->  16)  (   7->   5)  (   8->  14)  (   9->   2)  (  10->   1) 
 (  11->   4)  (  12->   3)  (  13->  15)  (  14->   8)  (  15->  13) 
 (  16->   6) 

 ptrans:     0.0000000     0.0000000     0.5000000
 rotmap:
 (   1->   9)  (   2->   2)  (   3->   3)  (   4->  12)  (   5->   6) 
 (   6->   5)  (   7->   8)  (   8->   7)  (   9->   1)  (  10->  10) 
 (  11->  11)  (  12->   4)  (  13->  14)  (  14->  13)  (  15->  16) 
 (  16->  15) 

 ptrans:     0.5000000     0.5000000     0.5000000
 rotmap:
 (   1->  12)  (   2->   3)  (   3->   2)  (   4->   9)  (   5->   8) 
 (   6->   7)  (   7->   6)  (   8->   5)  (   9->   4)  (  10->  11) 
 (  11->  10)  (  12->   1)  (  13->  16)  (  14->  15)  (  15->  14) 
 (  16->  13) 

 ptrans:     0.5000000     0.0000000     0.2500000
 rotmap:
 (   1->   3)  (   2->   4)  (   3->   1)  (   4->   2)  (   5->  13) 
 (   6->   6)  (   7->  15)  (   8->   8)  (   9->  11)  (  10->  12) 
 (  11->   9)  (  12->  10)  (  13->   5)  (  14->  14)  (  15->   7) 
 (  16->  16) 

 ptrans:     0.0000000     0.5000000     0.2500000
 rotmap:
 (   1->   2)  (   2->   1)  (   3->   4)  (   4->   3)  (   5->  15) 
 (   6->   8)  (   7->  13)  (   8->   6)  (   9->  10)  (  10->   9) 
 (  11->  12)  (  12->  11)  (  13->   7)  (  14->  16)  (  15->   5) 
 (  16->  14) 


 irot  :   6
 --------------------------------------------------------------------
 isymop:   0  -1   0
          -1   0   0
           0   0   1

 gtrans:     0.0000000     0.0000000     0.0000000

 ptrans:     0.0000000     0.0000000     0.0000000
 rotmap:
 (   1->   1)  (   2->   3)  (   3->   2)  (   4->   4)  (   5->   5) 
 (   6->   8)  (   7->   7)  (   8->   6)  (   9->   9)  (  10->  11) 
 (  11->  10)  (  12->  12)  (  13->  13)  (  14->  16)  (  15->  15) 
 (  16->  14) 

 ptrans:     0.5000000     0.5000000     0.0000000
 rotmap:
 (   1->   4)  (   2->   2)  (   3->   3)  (   4->   1)  (   5->   7) 
 (   6->   6)  (   7->   5)  (   8->   8)  (   9->  12)  (  10->  10) 
 (  11->  11)  (  12->   9)  (  13->  15)  (  14->  14)  (  15->  13) 
 (  16->  16) 

 ptrans:     0.5000000     0.0000000     0.7500000
 rotmap:
 (   1->  11)  (   2->   1)  (   3->   4)  (   4->  10)  (   5->   6) 
 (   6->  15)  (   7->   8)  (   8->  13)  (   9->   3)  (  10->   9) 
 (  11->  12)  (  12->   2)  (  13->  14)  (  14->   7)  (  15->  16) 
 (  16->   5) 

 ptrans:     0.0000000     0.5000000     0.7500000
 rotmap:
 (   1->  10)  (   2->   4)  (   3->   1)  (   4->  11)  (   5->   8) 
 (   6->  13)  (   7->   6)  (   8->  15)  (   9->   2)  (  10->  12) 
 (  11->   9)  (  12->   3)  (  13->  16)  (  14->   5)  (  15->  14) 
 (  16->   7) 

 ptrans:     0.0000000     0.0000000     0.5000000
 rotmap:
 (   1->   9)  (   2->  11)  (   3->  10)  (   4->  12)  (   5->  13) 
 (   6->  16)  (   7->  15)  (   8->  14)  (   9->   1)  (  10->   3) 
 (  11->   2)  (  12->   4)  (  13->   5)  (  14->   8)  (  15->   7) 
 (  16->   6) 

 ptrans:     0.5000000     0.5000000     0.5000000
 rotmap:
 (   1->  12)  (   2->  10)  (   3->  11)  (   4->   9)  (   5->  15) 
 (   6->  14)  (   7->  13)  (   8->  16)  (   9->   4)  (  10->   2) 
 (  11->   3)  (  12->   1)  (  13->   7)  (  14->   6)  (  15->   5) 
 (  16->   8) 

 ptrans:     0.5000000     0.0000000     0.2500000
 rotmap:
 (   1->   3)  (   2->   9)  (   3->  12)  (   4->   2)  (   5->  14) 
 (   6->   7)  (   7->  16)  (   8->   5)  (   9->  11)  (  10->   1) 
 (  11->   4)  (  12->  10)  (  13->   6)  (  14->  15)  (  15->   8) 
 (  16->  13) 

 ptrans:     0.0000000     0.5000000     0.2500000
 rotmap:
 (   1->   2)  (   2->  12)  (   3->   9)  (   4->   3)  (   5->  16) 
 (   6->   5)  (   7->  14)  (   8->   7)  (   9->  10)  (  10->   4) 
 (  11->   1)  (  12->  11)  (  13->   8)  (  14->  13)  (  15->   6) 
 (  16->  15) 


 irot  :   7
 --------------------------------------------------------------------
 isymop:   1   0   0
           0  -1   0
           0   0  -1

 gtrans:     0.0000000     0.0000000     0.0000000

 ptrans:     0.0000000     0.0000000     0.0000000
 rotmap:
 (   1->   1)  (   2->  10)  (   3->  11)  (   4->   4)  (   5->  16) 
 (   6->  15)  (   7->  14)  (   8->  13)  (   9->   9)  (  10->   2) 
 (  11->   3)  (  12->  12)  (  13->   8)  (  14->   7)  (  15->   6) 
 (  16->   5) 

 ptrans:     0.5000000     0.5000000     0.0000000
 rotmap:
 (   1->   4)  (   2->  11)  (   3->  10)  (   4->   1)  (   5->  14) 
 (   6->  13)  (   7->  16)  (   8->  15)  (   9->  12)  (  10->   3) 
 (  11->   2)  (  12->   9)  (  13->   6)  (  14->   5)  (  15->   8) 
 (  16->   7) 

 ptrans:     0.5000000     0.0000000     0.7500000
 rotmap:
 (   1->  11)  (   2->  12)  (   3->   9)  (   4->  10)  (   5->   7) 
 (   6->  16)  (   7->   5)  (   8->  14)  (   9->   3)  (  10->   4) 
 (  11->   1)  (  12->   2)  (  13->  15)  (  14->   8)  (  15->  13) 
 (  16->   6) 

 ptrans:     0.0000000     0.5000000     0.7500000
 rotmap:
 (   1->  10)  (   2->   9)  (   3->  12)  (   4->  11)  (   5->   5) 
 (   6->  14)  (   7->   7)  (   8->  16)  (   9->   2)  (  10->   1) 
 (  11->   4)  (  12->   3)  (  13->  13)  (  14->   6)  (  15->  15) 
 (  16->   8) 

 ptrans:     0.0000000     0.0000000     0.5000000
 rotmap:
 (   1->   9)  (   2->   2)  (   3->   3)  (   4->  12)  (   5->   8) 
 (   6->   7)  (   7->   6)  (   8->   5)  (   9->   1)  (  10->  10) 
 (  11->  11)  (  12->   4)  (  13->  16)  (  14->  15)  (  15->  14) 
 (  16->  13) 

 ptrans:     0.5000000     0.5000000     0.5000000
 rotmap:
 (   1->  12)  (   2->   3)  (   3->   2)  (   4->   9)  (   5->   6) 
 (   6->   5)  (   7->   8)  (   8->   7)  (   9->   4)  (  10->  11) 
 (  11->  10)  (  12->   1)  (  13->  14)  (  14->  13)  (  15->  16) 
 (  16->  15) 

 ptrans:     0.5000000     0.0000000     0.2500000
 rotmap:
 (   1->   3)  (   2->   4)  (   3->   1)  (   4->   2)  (   5->  15) 
 (   6->   8)  (   7->  13)  (   8->   6)  (   9->  11)  (  10->  12) 
 (  11->   9)  (  12->  10)  (  13->   7)  (  14->  16)  (  15->   5) 
 (  16->  14) 

 ptrans:     0.0000000     0.5000000     0.2500000
 rotmap:
 (   1->   2)  (   2->   1)  (   3->   4)  (   4->   3)  (   5->  13) 
 (   6->   6)  (   7->  15)  (   8->   8)  (   9->  10)  (  10->   9) 
 (  11->  12)  (  12->  11)  (  13->   5)  (  14->  14)  (  15->   7) 
 (  16->  16) 


 irot  :   8
 --------------------------------------------------------------------
 isymop:   0   1   0
           1   0   0
           0   0   1

 gtrans:     0.0000000     0.0000000     0.0000000

 ptrans:     0.0000000     0.0000000     0.0000000
 rotmap:
 (   1->   1)  (   2->   3)  (   3->   2)  (   4->   4)  (   5->   7) 
 (   6->   6)  (   7->   5)  (   8->   8)  (   9->   9)  (  10->  11) 
 (  11->  10)  (  12->  12)  (  13->  15)  (  14->  14)  (  15->  13) 
 (  16->  16) 

 ptrans:     0.5000000     0.5000000     0.0000000
 rotmap:
 (   1->   4)  (   2->   2)  (   3->   3)  (   4->   1)  (   5->   5) 
 (   6->   8)  (   7->   7)  (   8->   6)  (   9->  12)  (  10->  10) 
 (  11->  11)  (  12->   9)  (  13->  13)  (  14->  16)  (  15->  15) 
 (  16->  14) 

 ptrans:     0.5000000     0.0000000     0.7500000
 rotmap:
 (   1->  11)  (   2->   1)  (   3->   4)  (   4->  10)  (   5->   8) 
 (   6->  13)  (   7->   6)  (   8->  15)  (   9->   3)  (  10->   9) 
 (  11->  12)  (  12->   2)  (  13->  16)  (  14->   5)  (  15->  14) 
 (  16->   7) 

 ptrans:     0.0000000     0.5000000     0.7500000
 rotmap:
 (   1->  10)  (   2->   4)  (   3->   1)  (   4->  11)  (   5->   6) 
 (   6->  15)  (   7->   8)  (   8->  13)  (   9->   2)  (  10->  12) 
 (  11->   9)  (  12->   3)  (  13->  14)  (  14->   7)  (  15->  16) 
 (  16->   5) 

 ptrans:     0.0000000     0.0000000     0.5000000
 rotmap:
 (   1->   9)  (   2->  11)  (   3->  10)  (   4->  12)  (   5->  15) 
 (   6->  14)  (   7->  13)  (   8->  16)  (   9->   1)  (  10->   3) 
 (  11->   2)  (  12->   4)  (  13->   7)  (  14->   6)  (  15->   5) 
 (  16->   8) 

 ptrans:     0.5000000     0.5000000     0.5000000
 rotmap:
 (   1->  12)  (   2->  10)  (   3->  11)  (   4->   9)  (   5->  13) 
 (   6->  16)  (   7->  15)  (   8->  14)  (   9->   4)  (  10->   2) 
 (  11->   3)  (  12->   1)  (  13->   5)  (  14->   8)  (  15->   7) 
 (  16->   6) 

 ptrans:     0.5000000     0.0000000     0.2500000
 rotmap:
 (   1->   3)  (   2->   9)  (   3->  12)  (   4->   2)  (   5->  16) 
 (   6->   5)  (   7->  14)  (   8->   7)  (   9->  11)  (  10->   1) 
 (  11->   4)  (  12->  10)  (  13->   8)  (  14->  13)  (  15->   6) 
 (  16->  15) 

 ptrans:     0.0000000     0.5000000     0.2500000
 rotmap:
 (   1->   2)  (   2->  12)  (   3->   9)  (   4->   3)  (   5->  14) 
 (   6->   7)  (   7->  16)  (   8->   5)  (   9->  10)  (  10->   4) 
 (  11->   1)  (  12->  11)  (  13->   6)  (  14->  15)  (  15->   8) 
 (  16->  13) 


 irot  :   9
 --------------------------------------------------------------------
 isymop:  -1   0   0
           0  -1   0
           0   0  -1

 gtrans:     0.7500000     0.7500000    -0.3750000

 ptrans:     0.0000000     0.0000000     0.0000000
 rotmap:
 (   1->  16)  (   2->   5)  (   3->   7)  (   4->  14)  (   5->   2) 
 (   6->  12)  (   7->   3)  (   8->   9)  (   9->   8)  (  10->  13) 
 (  11->  15)  (  12->   6)  (  13->  10)  (  14->   4)  (  15->  11) 
 (  16->   1) 

 ptrans:     0.5000000     0.5000000     0.0000000
 rotmap:
 (   1->  14)  (   2->   7)  (   3->   5)  (   4->  16)  (   5->   3) 
 (   6->   9)  (   7->   2)  (   8->  12)  (   9->   6)  (  10->  15) 
 (  11->  13)  (  12->   8)  (  13->  11)  (  14->   1)  (  15->  10) 
 (  16->   4) 

 ptrans:     0.5000000     0.0000000     0.7500000
 rotmap:
 (   1->   7)  (   2->   6)  (   3->   8)  (   4->   5)  (   5->   4) 
 (   6->   2)  (   7->   1)  (   8->   3)  (   9->  15)  (  10->  14) 
 (  11->  16)  (  12->  13)  (  13->  12)  (  14->  10)  (  15->   9) 
 (  16->  11) 

 ptrans:     0.0000000     0.5000000     0.7500000
 rotmap:
 (   1->   5)  (   2->   8)  (   3->   6)  (   4->   7)  (   5->   1) 
 (   6->   3)  (   7->   4)  (   8->   2)  (   9->  13)  (  10->  16) 
 (  11->  14)  (  12->  15)  (  13->   9)  (  14->  11)  (  15->  12) 
 (  16->  10) 

 ptrans:     0.0000000     0.0000000     0.5000000
 rotmap:
 (   1->   8)  (   2->  13)  (   3->  15)  (   4->   6)  (   5->  10) 
 (   6->   4)  (   7->  11)  (   8->   1)  (   9->  16)  (  10->   5) 
 (  11->   7)  (  12->  14)  (  13->   2)  (  14->  12)  (  15->   3) 
 (  16->   9) 

 ptrans:     0.5000000     0.5000000     0.5000000
 rotmap:
 (   1->   6)  (   2->  15)  (   3->  13)  (   4->   8)  (   5->  11) 
 (   6->   1)  (   7->  10)  (   8->   4)  (   9->  14)  (  10->   7) 
 (  11->   5)  (  12->  16)  (  13->   3)  (  14->   9)  (  15->   2) 
 (  16->  12) 

 ptrans:     0.5000000     0.0000000     0.2500000
 rotmap:
 (   1->  15)  (   2->  14)  (   3->  16)  (   4->  13)  (   5->  12) 
 (   6->  10)  (   7->   9)  (   8->  11)  (   9->   7)  (  10->   6) 
 (  11->   8)  (  12->   5)  (  13->   4)  (  14->   2)  (  15->   1) 
 (  16->   3) 

 ptrans:     0.0000000     0.5000000     0.2500000
 rotmap:
 (   1->  13)  (   2->  16)  (   3->  14)  (   4->  15)  (   5->   9) 
 (   6->  11)  (   7->  12)  (   8->  10)  (   9->   5)  (  10->   8) 
 (  11->   6)  (  12->   7)  (  13->   1)  (  14->   3)  (  15->   4) 
 (  16->   2) 


 irot  :  10
 --------------------------------------------------------------------
 isymop:   0  -1   0
           1   0   0
           0   0   1

 gtrans:     0.7500000     0.7500000    -0.3750000

 ptrans:     0.0000000     0.0000000     0.0000000
 rotmap:
 (   1->  16)  (   2->  15)  (   3->  13)  (   4->  14)  (   5->   4) 
 (   6->  11)  (   7->   1)  (   8->  10)  (   9->   8)  (  10->   7) 
 (  11->   5)  (  12->   6)  (  13->  12)  (  14->   3)  (  15->   9) 
 (  16->   2) 

 ptrans:     0.5000000     0.5000000     0.0000000
 rotmap:
 (   1->  14)  (   2->  13)  (   3->  15)  (   4->  16)  (   5->   1) 
 (   6->  10)  (   7->   4)  (   8->  11)  (   9->   6)  (  10->   5) 
 (  11->   7)  (  12->   8)  (  13->   9)  (  14->   2)  (  15->  12) 
 (  16->   3) 

 ptrans:     0.5000000     0.0000000     0.7500000
 rotmap:
 (   1->   7)  (   2->  16)  (   3->  14)  (   4->   5)  (   5->  10) 
 (   6->   9)  (   7->  11)  (   8->  12)  (   9->  15)  (  10->   8) 
 (  11->   6)  (  12->  13)  (  13->   2)  (  14->   1)  (  15->   3) 
 (  16->   4) 

 ptrans:     0.0000000     0.5000000     0.7500000
 rotmap:
 (   1->   5)  (   2->  14)  (   3->  16)  (   4->   7)  (   5->  11) 
 (   6->  12)  (   7->  10)  (   8->   9)  (   9->  13)  (  10->   6) 
 (  11->   8)  (  12->  15)  (  13->   3)  (  14->   4)  (  15->   2) 
 (  16->   1) 

 ptrans:     0.0000000     0.0000000     0.5000000
 rotmap:
 (   1->   8)  (   2->   7)  (   3->   5)  (   4->   6)  (   5->  12) 
 (   6->   3)  (   7->   9)  (   8->   2)  (   9->  16)  (  10->  15) 
 (  11->  13)  (  12->  14)  (  13->   4)  (  14->  11)  (  15->   1) 
 (  16->  10) 

 ptrans:     0.5000000     0.5000000     0.5000000
 rotmap:
 (   1->   6)  (   2->   5)  (   3->   7)  (   4->   8)  (   5->   9) 
 (   6->   2)  (   7->  12)  (   8->   3)  (   9->  14)  (  10->  13) 
 (  11->  15)  (  12->  16)  (  13->   1)  (  14->  10)  (  15->   4) 
 (  16->  11) 

 ptrans:     0.5000000     0.0000000     0.2500000
 rotmap:
 (   1->  15)  (   2->   8)  (   3->   6)  (   4->  13)  (   5->   2) 
 (   6->   1)  (   7->   3)  (   8->   4)  (   9->   7)  (  10->  16) 
 (  11->  14)  (  12->   5)  (  13->  10)  (  14->   9)  (  15->  11) 
 (  16->  12) 

 ptrans:     0.0000000     0.5000000     0.2500000
 rotmap:
 (   1->  13)  (   2->   6)  (   3->   8)  (   4->  15)  (   5->   3) 
 (   6->   4)  (   7->   2)  (   8->   1)  (   9->   5)  (  10->  14) 
 (  11->  16)  (  12->   7)  (  13->  11)  (  14->  12)  (  15->  10) 
 (  16->   9) 


 irot  :  11
 --------------------------------------------------------------------
 isymop:   1   0   0
           0   1   0
           0   0  -1

 gtrans:     0.7500000     0.7500000    -0.3750000

 ptrans:     0.0000000     0.0000000     0.0000000
 rotmap:
 (   1->  16)  (   2->   5)  (   3->   7)  (   4->  14)  (   5->   3) 
 (   6->   9)  (   7->   2)  (   8->  12)  (   9->   8)  (  10->  13) 
 (  11->  15)  (  12->   6)  (  13->  11)  (  14->   1)  (  15->  10) 
 (  16->   4) 

 ptrans:     0.5000000     0.5000000     0.0000000
 rotmap:
 (   1->  14)  (   2->   7)  (   3->   5)  (   4->  16)  (   5->   2) 
 (   6->  12)  (   7->   3)  (   8->   9)  (   9->   6)  (  10->  15) 
 (  11->  13)  (  12->   8)  (  13->  10)  (  14->   4)  (  15->  11) 
 (  16->   1) 

 ptrans:     0.5000000     0.0000000     0.7500000
 rotmap:
 (   1->   7)  (   2->   6)  (   3->   8)  (   4->   5)  (   5->   1) 
 (   6->   3)  (   7->   4)  (   8->   2)  (   9->  15)  (  10->  14) 
 (  11->  16)  (  12->  13)  (  13->   9)  (  14->  11)  (  15->  12) 
 (  16->  10) 

 ptrans:     0.0000000     0.5000000     0.7500000
 rotmap:
 (   1->   5)  (   2->   8)  (   3->   6)  (   4->   7)  (   5->   4) 
 (   6->   2)  (   7->   1)  (   8->   3)  (   9->  13)  (  10->  16) 
 (  11->  14)  (  12->  15)  (  13->  12)  (  14->  10)  (  15->   9) 
 (  16->  11) 

 ptrans:     0.0000000     0.0000000     0.5000000
 rotmap:
 (   1->   8)  (   2->  13)  (   3->  15)  (   4->   6)  (   5->  11) 
 (   6->   1)  (   7->  10)  (   8->   4)  (   9->  16)  (  10->   5) 
 (  11->   7)  (  12->  14)  (  13->   3)  (  14->   9)  (  15->   2) 
 (  16->  12) 

 ptrans:     0.5000000     0.5000000     0.5000000
 rotmap:
 (   1->   6)  (   2->  15)  (   3->  13)  (   4->   8)  (   5->  10) 
 (   6->   4)  (   7->  11)  (   8->   1)  (   9->  14)  (  10->   7) 
 (  11->   5)  (  12->  16)  (  13->   2)  (  14->  12)  (  15->   3) 
 (  16->   9) 

 ptrans:     0.5000000     0.0000000     0.2500000
 rotmap:
 (   1->  15)  (   2->  14)  (   3->  16)  (   4->  13)  (   5->   9) 
 (   6->  11)  (   7->  12)  (   8->  10)  (   9->   7)  (  10->   6) 
 (  11->   8)  (  12->   5)  (  13->   1)  (  14->   3)  (  15->   4) 
 (  16->   2) 

 ptrans:     0.0000000     0.5000000     0.2500000
 rotmap:
 (   1->  13)  (   2->  16)  (   3->  14)  (   4->  15)  (   5->  12) 
 (   6->  10)  (   7->   9)  (   8->  11)  (   9->   5)  (  10->   8) 
 (  11->   6)  (  12->   7)  (  13->   4)  (  14->   2)  (  15->   1) 
 (  16->   3) 


 irot  :  12
 --------------------------------------------------------------------
 isymop:   0   1   0
          -1   0   0
           0   0   1

 gtrans:     0.7500000     0.7500000    -0.3750000

 ptrans:     0.0000000     0.0000000     0.0000000
 rotmap:
 (   1->  16)  (   2->  15)  (   3->  13)  (   4->  14)  (   5->   1) 
 (   6->  10)  (   7->   4)  (   8->  11)  (   9->   8)  (  10->   7) 
 (  11->   5)  (  12->   6)  (  13->   9)  (  14->   2)  (  15->  12) 
 (  16->   3) 

 ptrans:     0.5000000     0.5000000     0.0000000
 rotmap:
 (   1->  14)  (   2->  13)  (   3->  15)  (   4->  16)  (   5->   4) 
 (   6->  11)  (   7->   1)  (   8->  10)  (   9->   6)  (  10->   5) 
 (  11->   7)  (  12->   8)  (  13->  12)  (  14->   3)  (  15->   9) 
 (  16->   2) 

 ptrans:     0.5000000     0.0000000     0.7500000
 rotmap:
 (   1->   7)  (   2->  16)  (   3->  14)  (   4->   5)  (   5->  11) 
 (   6->  12)  (   7->  10)  (   8->   9)  (   9->  15)  (  10->   8) 
 (  11->   6)  (  12->  13)  (  13->   3)  (  14->   4)  (  15->   2) 
 (  16->   1) 

 ptrans:     0.0000000     0.5000000     0.7500000
 rotmap:
 (   1->   5)  (   2->  14)  (   3->  16)  (   4->   7)  (   5->  10) 
 (   6->   9)  (   7->  11)  (   8->  12)  (   9->  13)  (  10->   6) 
 (  11->   8)  (  12->  15)  (  13->   2)  (  14->   1)  (  15->   3) 
 (  16->   4) 

 ptrans:     0.0000000     0.0000000     0.5000000
 rotmap:
 (   1->   8)  (   2->   7)  (   3->   5)  (   4->   6)  (   5->   9) 
 (   6->   2)  (   7->  12)  (   8->   3)  (   9->  16)  (  10->  15) 
 (  11->  13)  (  12->  14)  (  13->   1)  (  14->  10)  (  15->   4) 
 (  16->  11) 

 ptrans:     0.5000000     0.5000000     0.5000000
 rotmap:
 (   1->   6)  (   2->   5)  (   3->   7)  (   4->   8)  (   5->  12) 
 (   6->   3)  (   7->   9)  (   8->   2)  (   9->  14)  (  10->  13) 
 (  11->  15)  (  12->  16)  (  13->   4)  (  14->  11)  (  15->   1) 
 (  16->  10) 

 ptrans:     0.5000000     0.0000000     0.2500000
 rotmap:
 (   1->  15)  (   2->   8)  (   3->   6)  (   4->  13)  (   5->   3) 
 (   6->   4)  (   7->   2)  (   8->   1)  (   9->   7)  (  10->  16) 
 (  11->  14)  (  12->   5)  (  13->  11)  (  14->  12)  (  15->  10) 
 (  16->   9) 

 ptrans:     0.0000000     0.5000000     0.2500000
 rotmap:
 (   1->  13)  (   2->   6)  (   3->   8)  (   4->  15)  (   5->   2) 
 (   6->   1)  (   7->   3)  (   8->   4)  (   9->   5)  (  10->  14) 
 (  11->  16)  (  12->   7)  (  13->  10)  (  14->   9)  (  15->  11) 
 (  16->  12) 


 irot  :  13
 --------------------------------------------------------------------
 isymop:   1   0   0
           0  -1   0
           0   0   1

 gtrans:     0.7500000     0.7500000    -0.3750000

 ptrans:     0.0000000     0.0000000     0.0000000
 rotmap:
 (   1->  16)  (   2->  13)  (   3->  15)  (   4->  14)  (   5->   4) 
 (   6->  10)  (   7->   1)  (   8->  11)  (   9->   8)  (  10->   5) 
 (  11->   7)  (  12->   6)  (  13->  12)  (  14->   2)  (  15->   9) 
 (  16->   3) 

 ptrans:     0.5000000     0.5000000     0.0000000
 rotmap:
 (   1->  14)  (   2->  15)  (   3->  13)  (   4->  16)  (   5->   1) 
 (   6->  11)  (   7->   4)  (   8->  10)  (   9->   6)  (  10->   7) 
 (  11->   5)  (  12->   8)  (  13->   9)  (  14->   3)  (  15->  12) 
 (  16->   2) 

 ptrans:     0.5000000     0.0000000     0.7500000
 rotmap:
 (   1->   7)  (   2->  14)  (   3->  16)  (   4->   5)  (   5->  10) 
 (   6->  12)  (   7->  11)  (   8->   9)  (   9->  15)  (  10->   6) 
 (  11->   8)  (  12->  13)  (  13->   2)  (  14->   4)  (  15->   3) 
 (  16->   1) 

 ptrans:     0.0000000     0.5000000     0.7500000
 rotmap:
 (   1->   5)  (   2->  16)  (   3->  14)  (   4->   7)  (   5->  11) 
 (   6->   9)  (   7->  10)  (   8->  12)  (   9->  13)  (  10->   8) 
 (  11->   6)  (  12->  15)  (  13->   3)  (  14->   1)  (  15->   2) 
 (  16->   4) 

 ptrans:     0.0000000     0.0000000     0.5000000
 rotmap:
 (   1->   8)  (   2->   5)  (   3->   7)  (   4->   6)  (   5->  12) 
 (   6->   2)  (   7->   9)  (   8->   3)  (   9->  16)  (  10->  13) 
 (  11->  15)  (  12->  14)  (  13->   4)  (  14->  10)  (  15->   1) 
 (  16->  11) 

 ptrans:     0.5000000     0.5000000     0.5000000
 rotmap:
 (   1->   6)  (   2->   7)  (   3->   5)  (   4->   8)  (   5->   9) 
 (   6->   3)  (   7->  12)  (   8->   2)  (   9->  14)  (  10->  15) 
 (  11->  13)  (  12->  16)  (  13->   1)  (  14->  11)  (  15->   4) 
 (  16->  10) 

 ptrans:     0.5000000     0.0000000     0.2500000
 rotmap:
 (   1->  15)  (   2->   6)  (   3->   8)  (   4->  13)  (   5->   2) 
 (   6->   4)  (   7->   3)  (   8->   1)  (   9->   7)  (  10->  14) 
 (  11->  16)  (  12->   5)  (  13->  10)  (  14->  12)  (  15->  11) 
 (  16->   9) 

 ptrans:     0.0000000     0.5000000     0.2500000
 rotmap:
 (   1->  13)  (   2->   8)  (   3->   6)  (   4->  15)  (   5->   3) 
 (   6->   1)  (   7->   2)  (   8->   4)  (   9->   5)  (  10->  16) 
 (  11->  14)  (  12->   7)  (  13->  11)  (  14->   9)  (  15->  10) 
 (  16->  12) 


 irot  :  14
 --------------------------------------------------------------------
 isymop:   0   1   0
           1   0   0
           0   0  -1

 gtrans:     0.7500000     0.7500000    -0.3750000

 ptrans:     0.0000000     0.0000000     0.0000000
 rotmap:
 (   1->  16)  (   2->   7)  (   3->   5)  (   4->  14)  (   5->   2) 
 (   6->   9)  (   7->   3)  (   8->  12)  (   9->   8)  (  10->  15) 
 (  11->  13)  (  12->   6)  (  13->  10)  (  14->   1)  (  15->  11) 
 (  16->   4) 

 ptrans:     0.5000000     0.5000000     0.0000000
 rotmap:
 (   1->  14)  (   2->   5)  (   3->   7)  (   4->  16)  (   5->   3) 
 (   6->  12)  (   7->   2)  (   8->   9)  (   9->   6)  (  10->  13) 
 (  11->  15)  (  12->   8)  (  13->  11)  (  14->   4)  (  15->  10) 
 (  16->   1) 

 ptrans:     0.5000000     0.0000000     0.7500000
 rotmap:
 (   1->   7)  (   2->   8)  (   3->   6)  (   4->   5)  (   5->   4) 
 (   6->   3)  (   7->   1)  (   8->   2)  (   9->  15)  (  10->  16) 
 (  11->  14)  (  12->  13)  (  13->  12)  (  14->  11)  (  15->   9) 
 (  16->  10) 

 ptrans:     0.0000000     0.5000000     0.7500000
 rotmap:
 (   1->   5)  (   2->   6)  (   3->   8)  (   4->   7)  (   5->   1) 
 (   6->   2)  (   7->   4)  (   8->   3)  (   9->  13)  (  10->  14) 
 (  11->  16)  (  12->  15)  (  13->   9)  (  14->  10)  (  15->  12) 
 (  16->  11) 

 ptrans:     0.0000000     0.0000000     0.5000000
 rotmap:
 (   1->   8)  (   2->  15)  (   3->  13)  (   4->   6)  (   5->  10) 
 (   6->   1)  (   7->  11)  (   8->   4)  (   9->  16)  (  10->   7) 
 (  11->   5)  (  12->  14)  (  13->   2)  (  14->   9)  (  15->   3) 
 (  16->  12) 

 ptrans:     0.5000000     0.5000000     0.5000000
 rotmap:
 (   1->   6)  (   2->  13)  (   3->  15)  (   4->   8)  (   5->  11) 
 (   6->   4)  (   7->  10)  (   8->   1)  (   9->  14)  (  10->   5) 
 (  11->   7)  (  12->  16)  (  13->   3)  (  14->  12)  (  15->   2) 
 (  16->   9) 

 ptrans:     0.5000000     0.0000000     0.2500000
 rotmap:
 (   1->  15)  (   2->  16)  (   3->  14)  (   4->  13)  (   5->  12) 
 (   6->  11)  (   7->   9)  (   8->  10)  (   9->   7)  (  10->   8) 
 (  11->   6)  (  12->   5)  (  13->   4)  (  14->   3)  (  15->   1) 
 (  16->   2) 

 ptrans:     0.0000000     0.5000000     0.2500000
 rotmap:
 (   1->  13)  (   2->  14)  (   3->  16)  (   4->  15)  (   5->   9) 
 (   6->  10)  (   7->  12)  (   8->  11)  (   9->   5)  (  10->   6) 
 (  11->   8)  (  12->   7)  (  13->   1)  (  14->   2)  (  15->   4) 
 (  16->   3) 


 irot  :  15
 --------------------------------------------------------------------
 isymop:  -1   0   0
           0   1   0
           0   0   1

 gtrans:     0.7500000     0.7500000    -0.3750000

 ptrans:     0.0000000     0.0000000     0.0000000
 rotmap:
 (   1->  16)  (   2->  13)  (   3->  15)  (   4->  14)  (   5->   1) 
 (   6->  11)  (   7->   4)  (   8->  10)  (   9->   8)  (  10->   5) 
 (  11->   7)  (  12->   6)  (  13->   9)  (  14->   3)  (  15->  12) 
 (  16->   2) 

 ptrans:     0.5000000     0.5000000     0.0000000
 rotmap:
 (   1->  14)  (   2->  15)  (   3->  13)  (   4->  16)  (   5->   4) 
 (   6->  10)  (   7->   1)  (   8->  11)  (   9->   6)  (  10->   7) 
 (  11->   5)  (  12->   8)  (  13->  12)  (  14->   2)  (  15->   9) 
 (  16->   3) 

 ptrans:     0.5000000     0.0000000     0.7500000
 rotmap:
 (   1->   7)  (   2->  14)  (   3->  16)  (   4->   5)  (   5->  11) 
 (   6->   9)  (   7->  10)  (   8->  12)  (   9->  15)  (  10->   6) 
 (  11->   8)  (  12->  13)  (  13->   3)  (  14->   1)  (  15->   2) 
 (  16->   4) 

 ptrans:     0.0000000     0.5000000     0.7500000
 rotmap:
 (   1->   5)  (   2->  16)  (   3->  14)  (   4->   7)  (   5->  10) 
 (   6->  12)  (   7->  11)  (   8->   9)  (   9->  13)  (  10->   8) 
 (  11->   6)  (  12->  15)  (  13->   2)  (  14->   4)  (  15->   3) 
 (  16->   1) 

 ptrans:     0.0000000     0.0000000     0.5000000
 rotmap:
 (   1->   8)  (   2->   5)  (   3->   7)  (   4->   6)  (   5->   9) 
 (   6->   3)  (   7->  12)  (   8->   2)  (   9->  16)  (  10->  13) 
 (  11->  15)  (  12->  14)  (  13->   1)  (  14->  11)  (  15->   4) 
 (  16->  10) 

 ptrans:     0.5000000     0.5000000     0.5000000
 rotmap:
 (   1->   6)  (   2->   7)  (   3->   5)  (   4->   8)  (   5->  12) 
 (   6->   2)  (   7->   9)  (   8->   3)  (   9->  14)  (  10->  15) 
 (  11->  13)  (  12->  16)  (  13->   4)  (  14->  10)  (  15->   1) 
 (  16->  11) 

 ptrans:     0.5000000     0.0000000     0.2500000
 rotmap:
 (   1->  15)  (   2->   6)  (   3->   8)  (   4->  13)  (   5->   3) 
 (   6->   1)  (   7->   2)  (   8->   4)  (   9->   7)  (  10->  14) 
 (  11->  16)  (  12->   5)  (  13->  11)  (  14->   9)  (  15->  10) 
 (  16->  12) 

 ptrans:     0.0000000     0.5000000     0.2500000
 rotmap:
 (   1->  13)  (   2->   8)  (   3->   6)  (   4->  15)  (   5->   2) 
 (   6->   4)  (   7->   3)  (   8->   1)  (   9->   5)  (  10->  16) 
 (  11->  14)  (  12->   7)  (  13->  10)  (  14->  12)  (  15->  11) 
 (  16->   9) 


 irot  :  16
 --------------------------------------------------------------------
 isymop:   0  -1   0
          -1   0   0
           0   0  -1

 gtrans:     0.7500000     0.7500000    -0.3750000

 ptrans:     0.0000000     0.0000000     0.0000000
 rotmap:
 (   1->  16)  (   2->   7)  (   3->   5)  (   4->  14)  (   5->   3) 
 (   6->  12)  (   7->   2)  (   8->   9)  (   9->   8)  (  10->  15) 
 (  11->  13)  (  12->   6)  (  13->  11)  (  14->   4)  (  15->  10) 
 (  16->   1) 

 ptrans:     0.5000000     0.5000000     0.0000000
 rotmap:
 (   1->  14)  (   2->   5)  (   3->   7)  (   4->  16)  (   5->   2) 
 (   6->   9)  (   7->   3)  (   8->  12)  (   9->   6)  (  10->  13) 
 (  11->  15)  (  12->   8)  (  13->  10)  (  14->   1)  (  15->  11) 
 (  16->   4) 

 ptrans:     0.5000000     0.0000000     0.7500000
 rotmap:
 (   1->   7)  (   2->   8)  (   3->   6)  (   4->   5)  (   5->   1) 
 (   6->   2)  (   7->   4)  (   8->   3)  (   9->  15)  (  10->  16) 
 (  11->  14)  (  12->  13)  (  13->   9)  (  14->  10)  (  15->  12) 
 (  16->  11) 

 ptrans:     0.0000000     0.5000000     0.7500000
 rotmap:
 (   1->   5)  (   2->   6)  (   3->   8)  (   4->   7)  (   5->   4) 
 (   6->   3)  (   7->   1)  (   8->   2)  (   9->  13)  (  10->  14) 
 (  11->  16)  (  12->  15)  (  13->  12)  (  14->  11)  (  15->   9) 
 (  16->  10) 

 ptrans:     0.0000000     0.0000000     0.5000000
 rotmap:
 (   1->   8)  (   2->  15)  (   3->  13)  (   4->   6)  (   5->  11) 
 (   6->   4)  (   7->  10)  (   8->   1)  (   9->  16)  (  10->   7) 
 (  11->   5)  (  12->  14)  (  13->   3)  (  14->  12)  (  15->   2) 
 (  16->   9) 

 ptrans:     0.5000000     0.5000000     0.5000000
 rotmap:
 (   1->   6)  (   2->  13)  (   3->  15)  (   4->   8)  (   5->  10) 
 (   6->   1)  (   7->  11)  (   8->   4)  (   9->  14)  (  10->   5) 
 (  11->   7)  (  12->  16)  (  13->   2)  (  14->   9)  (  15->   3) 
 (  16->  12) 

 ptrans:     0.5000000     0.0000000     0.2500000
 rotmap:
 (   1->  15)  (   2->  16)  (   3->  14)  (   4->  13)  (   5->   9) 
 (   6->  10)  (   7->  12)  (   8->  11)  (   9->   7)  (  10->   8) 
 (  11->   6)  (  12->   5)  (  13->   1)  (  14->   2)  (  15->   4) 
 (  16->   3) 

 ptrans:     0.0000000     0.5000000     0.2500000
 rotmap:
 (   1->  13)  (   2->  14)  (   3->  16)  (   4->  15)  (   5->  12) 
 (   6->  11)  (   7->   9)  (   8->  10)  (   9->   5)  (  10->   6) 
 (  11->   8)  (  12->   7)  (  13->   4)  (  14->   3)  (  15->   1) 
 (  16->   2) 
 
 
 KPOINTS: Automatic mesh                          

Automatic generation of k-mesh.
Space group operators:
 irot       det(A)        alpha          n_x          n_y          n_z        tau_x        tau_y        tau_z
    1     1.000000     0.000000     1.000000     0.000000     0.000000     0.000000     0.000000     0.000000
    2    -1.000000    90.000000     0.000000     0.000000    -1.000000     0.000000     0.000000     0.000000
    3     1.000000   179.999999     0.000000     0.000000     1.000000     0.000000     0.000000     0.000000
    4    -1.000000    90.000000     0.000000     0.000000     1.000000     0.000000     0.000000     0.000000
    5     1.000000   180.000000     0.000000     1.000000     0.000000     0.000000     0.000000     0.000000
    6    -1.000000   180.000000     0.707107     0.707107     0.000000     0.000000     0.000000     0.000000
    7     1.000000   180.000000     1.000000     0.000000     0.000000     0.000000     0.000000     0.000000
    8    -1.000000   180.000000     0.707107    -0.707107     0.000000     0.000000     0.000000     0.000000
    9    -1.000000     0.000000     1.000000     0.000000     0.000000     0.750000     0.750000    -0.375000
   10     1.000000    90.000000     0.000000     0.000000    -1.000000     0.750000     0.750000    -0.375000
   11    -1.000000   179.999999     0.000000     0.000000     1.000000     0.750000     0.750000    -0.375000
   12     1.000000    90.000000     0.000000     0.000000     1.000000     0.750000     0.750000    -0.375000
   13    -1.000000   180.000000     0.000000     1.000000     0.000000     0.750000     0.750000    -0.375000
   14     1.000000   180.000000     0.707107     0.707107     0.000000     0.750000     0.750000    -0.375000
   15    -1.000000   180.000000     1.000000     0.000000     0.000000     0.750000     0.750000    -0.375000
   16     1.000000   180.000000     0.707107    -0.707107     0.000000     0.750000     0.750000    -0.375000
 
 Subroutine IBZKPT returns following result:
 ===========================================
 
 Found      1 irreducible k-points:
 
 Following reciprocal coordinates:
            Coordinates               Weight
  0.000000  0.000000  0.000000      1.000000
 
 Following cartesian coordinates:
            Coordinates               Weight
  0.000000  0.000000  0.000000      1.000000
 


--------------------------------------------------------------------------------------------------------




 Dimension of arrays:
   k-points           NKPTS =      1   k-points in BZ     NKDIM =      1   number of bands    NBANDS=     44
   number of dos      NEDOS =    301   number of ions     NIONS =     16
   non local maximal  LDIM  =      4   non local SUM 2l+1 LMDIM =      8
   total plane-waves  NPLWV =  43904
   max r-space proj   IRMAX =      1   max aug-charges    IRDMAX=   4782
   dimension x,y,z NGX =    28 NGY =   28 NGZ =   56
   dimension x,y,z NGXF=    56 NGYF=   56 NGZF=  112
   support grid    NGXF=    56 NGYF=   56 NGZF=  112
   ions per type =              16
 NGX,Y,Z   is equivalent  to a cutoff of   8.57,  8.57,  8.57 a.u.
 NGXF,Y,Z  is equivalent  to a cutoff of  17.14, 17.14, 17.14 a.u.


 I would recommend the setting:
   dimension x,y,z NGX =    28 NGY =   28 NGZ =   55
 SYSTEM =  Si series                               
 POSCAR =  Si                                      

 Startparameter for this run:
   NWRITE =      2    write-flag & timer
   PREC   = accura    normal or accurate (medium, high low for compatibility)
   ISTART =      0    job   : 0-new  1-cont  2-samecut
   ICHARG =      2    charge: 1-file 2-atom 10-const
   ISPIN  =      1    spin polarized calculation?
   LNONCOLLINEAR =      F non collinear calculations
   LSORBIT =      F    spin-orbit coupling
   INIWAV =      1    electr: 0-lowe 1-rand  2-diag
   LASPH  =      F    aspherical Exc in radial PAW
   METAGGA=      F    non-selfconsistent MetaGGA calc.

 Electronic Relaxation 1
   ENCUT  =  245.3 eV  18.03 Ry    4.25 a.u.   6.94  6.94 13.87*2*pi/ulx,y,z
   ENINI  =  245.3     initial cutoff
   ENAUG  =  322.1 eV  augmentation charge cutoff
   NELM   =     60;   NELMIN=  2; NELMDL= -5     # of ELM steps 
   EDIFF  = 0.1E-04   stopping-criterion for ELM
   LREAL  =      F    real-space projection
   NLSPLINE    = F    spline interpolate recip. space projectors
   LCOMPAT=      F    compatible to vasp.4.4
   GGA_COMPAT  = T    GGA compatible to vasp.4.4-vasp.4.6
   LMAXPAW     = -100 max onsite density
   LMAXMIX     =    2 max onsite mixed and CHGCAR
   VOSKOWN=      1    Vosko Wilk Nusair interpolation
   ROPT   =    0.00000
 Ionic relaxation
   EDIFFG = -.2E-01   stopping-criterion for IOM
   NSW    =      0    number of steps for IOM
   NBLOCK =      1;   KBLOCK =      1    inner block; outer block 
   IBRION =     -1    ionic relax: 0-MD 1-quasi-New 2-CG
   NFREE  =      0    steps in history (QN), initial steepest desc. (CG)
   ISIF   =      2    stress and relaxation
   IWAVPR =     10    prediction:  0-non 1-charg 2-wave 3-comb
   ISYM   =      2    0-nonsym 1-usesym 2-fastsym
   LCORR  =      T    Harris-Foulkes like correction to forces

   POTIM  = 0.5000    time-step for ionic-motion
   TEIN   =    0.0    initial temperature
   TEBEG  =    0.0;   TEEND  =   0.0 temperature during run
   SMASS  =  -3.00    Nose mass-parameter (am)
   estimated Nose-frequenzy (Omega)   =  0.10E-29 period in steps =****** mass=  -0.674E-27a.u.
   SCALEE = 1.0000    scale energy and forces
   NPACO  =    256;   APACO  = 16.0  distance and # of slots for P.C.
   PSTRESS=    0.0 pullay stress

  Mass of Ions in am
   POMASS =  28.09
  Ionic Valenz
   ZVAL   =   4.00
  Atomic Wigner-Seitz radii
   RWIGS  =   1.11
  virtual crystal weights 
   VCA    =   1.00
   NELECT =      64.0000    total number of electrons
   NUPDOWN=      -1.0000    fix difference up-down

 DOS related values:
   EMIN   =  10.00;   EMAX   =-10.00  energy-range for DOS
   EFERMI =   0.00
   ISMEAR =     0;   SIGMA  =   0.20  broadening in eV -4-tet -1-fermi 0-gaus

 Electronic relaxation 2 (details)
   IALGO  =     68    algorithm
   LDIAG  =      T    sub-space diagonalisation (order eigenvalues)
   LSUBROT=      T    optimize rotation matrix (better conditioning)
   TURBO    =      0    0=normal 1=particle mesh
   IRESTART =      0    0=no restart 2=restart with 2 vectors
   NREBOOT  =      0    no. of reboots
   NMIN     =      0    reboot dimension
   EREF     =   0.00    reference energy to select bands
   IMIX   =      4    mixing-type and parameters
     AMIX     =   0.40;   BMIX     =  1.00
     AMIX_MAG =   1.60;   BMIX_MAG =  1.00
     AMIN     =   0.10
     WC   =   100.;   INIMIX=   1;  MIXPRE=   1;  MAXMIX= -45

 Intra band minimization:
   WEIMIN = 0.0000     energy-eigenvalue tresh-hold
   EBREAK =  0.57E-07  absolut break condition
   DEPER  =   0.30     relativ break condition  

   TIME   =   0.40     timestep for ELM

  volume/ion in A,a.u.               =      20.02       135.11
  Fermi-wavevector in a.u.,A,eV,Ry     =   0.957052  1.808567 12.462245  0.915949
  Thomas-Fermi vector in A             =   2.086036
 
 Write flags
   LWAVE  =      F    write WAVECAR
   LCHARG =      T    write CHGCAR
   LVTOT  =      T    write LOCPOT, total local potential
   LVHAR  =      F    write LOCPOT, Hartree potential only
   LELF   =      F    write electronic localiz. function (ELF)
   LORBIT =      0    0 simple, 1 ext, 2 COOP (PROOUT)


 Dipole corrections
   LMONO  =      F    monopole corrections only (constant potential shift)
   LDIPOL =      F    correct potential (dipole corrections)
   IDIPOL =      0    1-x, 2-y, 3-z, 4-all directions 
   EPSILON=  1.0000000 bulk dielectric constant

 Exchange correlation treatment:
   GGA     =    PE    GGA type
   LEXCH   =     8    internal setting for exchange type
   VOSKOWN=      1    Vosko Wilk Nusair interpolation
   LHFCALC =     F    Hartree Fock is set to
   LHFONE  =     F    Hartree Fock one center treatment
   AEXX    =    0.0000 exact exchange contribution

 Linear response parameters
   LEPSILON=     F    determine dielectric tensor
   LRPA    =     F    only Hartree local field effects (RPA)
   LNABLA  =     F    use nabla operator in PAW spheres
   LVEL    =     F    velocity operator in full k-point grid
   LINTERFAST=   F  fast interpolation
   KINTER  =     0    interpolate to denser k-point grid
   CSHIFT  =0.1000    complex shift for real part using Kramers Kronig
   OMEGAMAX=  -1.0    maximum frequency
   DEG_THRESHOLD= 0.2000000E-02 threshold for treating states as degnerate
   RTIME   =    0.100 relaxation time in fs

 Orbital magnetization related:
   ORBITALMAG=     F  switch on orbital magnetization
   LCHIMAG   =     F  perturbation theory with respect to B field
   DQ        =  0.001000  dq finite difference perturbation B field



--------------------------------------------------------------------------------------------------------


 Static calculation
 charge density and potential will be updated during run
 non-spin polarized calculation
 RMM-DIIS sequential band-by-band and
  variant of blocked Davidson during initial phase
 perform sub-space diagonalisation
    before iterative eigenvector-optimisation
 modified Broyden-mixing scheme, WC =      100.0
 initial mixing is a Kerker type mixing with AMIX =  0.4000 and BMIX =      1.0000
 Hartree-type preconditioning will be used
 using additional bands           12
 reciprocal scheme for non local part
 use partial core corrections
 calculate Harris-corrections to forces 
   (improved forces if not selfconsistent)
 use gradient corrections 
 use of overlap-Matrix (Vanderbilt PP)
 Gauss-broadening in eV      SIGMA  =   0.20


--------------------------------------------------------------------------------------------------------


  energy-cutoff  :      245.34
  volume of cell :      320.33
      direct lattice vectors                 reciprocal lattice vectors
     5.430700000  0.000000000  0.000000000     0.184138325  0.000000000  0.000000000
     0.000000000  5.430700000  0.000000000     0.000000000  0.184138325  0.000000000
     0.000000000  0.000000000 10.861400000     0.000000000  0.000000000  0.092069162

  length of vectors
     5.430700000  5.430700000 10.861400000     0.184138325  0.184138325  0.092069162


 
 k-points in units of 2pi/SCALE and weight: Automatic mesh                          
   0.00000000  0.00000000  0.00000000       1.000
 
 k-points in reciprocal lattice and weights: Automatic mesh                          
   0.00000000  0.00000000  0.00000000       1.000
 
 position of ions in fractional coordinates (direct lattice) 
   0.00000000  0.00000000  0.00000000
   0.00000000  0.50000000  0.25000000
   0.50000000  0.00000000  0.25000000
   0.50000000  0.50000000  0.00000000
   0.75000000  0.25000000  0.37500000
   0.25000000  0.25000000  0.12500000
   0.25000000  0.75000000  0.37500000
   0.75000000  0.75000000  0.12500000
   0.00000000  0.00000000  0.50000000
   0.00000000  0.50000000  0.75000000
   0.50000000  0.00000000  0.75000000
   0.50000000  0.50000000  0.50000000
   0.75000000  0.25000000  0.87500000
   0.25000000  0.25000000  0.62500000
   0.25000000  0.75000000  0.87500000
   0.75000000  0.75000000  0.62500000
 
 position of ions in cartesian coordinates  (Angst):
   0.00000000  0.00000000  0.00000000
   0.00000000  2.71535000  2.71535000
   2.71535000  0.00000000  2.71535000
   2.71535000  2.71535000  0.00000000
   4.07302500  1.35767500  4.07302500
   1.35767500  1.35767500  1.35767500
   1.35767500  4.07302500  4.07302500
   4.07302500  4.07302500  1.35767500
   0.00000000  0.00000000  5.43070000
   0.00000000  2.71535000  8.14605000
   2.71535000  0.00000000  8.14605000
   2.71535000  2.71535000  5.43070000
   4.07302500  1.35767500  9.50372500
   1.35767500  1.35767500  6.78837500
   1.35767500  4.07302500  9.50372500
   4.07302500  4.07302500  6.78837500
 


--------------------------------------------------------------------------------------------------------


 k-point  1 :   0.0000 0.0000 0.0000  plane waves:    2771

 maximum and minimum number of plane-waves per node :      2771     2771

 maximum number of plane-waves:      2771
 maximum index in each direction: 
   IXMAX=    6   IYMAX=    6   IZMAX=   13
   IXMIN=   -6   IYMIN=   -6   IZMIN=  -13

 NGX is ok and might be reduce to  26
 NGY is ok and might be reduce to  26
 NGZ is ok and might be reduce to  54

 serial   3D FFT for wavefunctions
 parallel 3D FFT for charge:
    minimum data exchange during FFTs selected (reduces bandwidth)


 total amount of memory used by VASP on root node    40652. kBytes
========================================================================

   base      :      30000. kBytes
   nonl-proj :        887. kBytes
   fftplans  :       3173. kBytes
   grid      :       6033. kBytes
   one-center:         49. kBytes
   wavefun   :        510. kBytes
 
 Broyden mixing: mesh for mixing (old mesh)
   NGX = 13   NGY = 13   NGZ = 27
  (NGX  = 56   NGY  = 56   NGZ  =112)
  gives a total of   4563 points

 initial charge density was supplied:
 charge density of overlapping atoms calculated
 number of electron      64.0000000 magnetization 
 keeping initial charge density in first step


--------------------------------------------------------------------------------------------------------


 Maximum index for augmentation-charges         1145 (set IRDMAX)


--------------------------------------------------------------------------------------------------------


 First call to EWALD:  gamma=   0.259
 Maximum number of real-space cells 3x 3x 2
 Maximum number of reciprocal cells 2x 2x 4

 FEWALD executed in parallel
    FEWALD:  cpu time    0.00: real time    0.00


----------------------------------------- Iteration    1(   1)  ---------------------------------------


    POTLOK:  cpu time    0.10: real time    0.10
    SETDIJ:  cpu time    0.00: real time    0.00
     EDDAV:  cpu time    0.10: real time    0.12
       DOS:  cpu time    0.00: real time    0.00
    --------------------------------------------
      LOOP:  cpu time    0.20: real time    0.23

 eigenvalue-minimisations  :    88
 total energy-change (2. order) : 0.7992957E+02  (-0.1544490E+04)
 number of electron      64.0000000 magnetization 
 augmentation part       64.0000000 magnetization 

 Free energy of the ion-electron system (eV)
  ---------------------------------------------------
  alpha Z        PSCENC =        26.90277238
  Ewald energy   TEWEN  =     -1828.27265653
  -1/2 Hartree   DENC   =       -88.05509426
  -exchange  EXHF       =         0.00000000
  -V(xc)+E(xc)   XCENC  =      -148.82706839
  PAW double counting   =      1409.98079384    -1128.48828464
  entropy T*S    EENTRO =        -0.10953661
  eigenvalues    EBANDS =       187.81806520
  atomic energy  EATOM  =      1648.98057850
  ---------------------------------------------------
  free energy    TOTEN  =        79.92956948 eV

  energy without entropy =       80.03910608  energy(sigma->0) =       79.98433778


--------------------------------------------------------------------------------------------------------




----------------------------------------- Iteration    1(   2)  ---------------------------------------


     EDDAV:  cpu time    0.12: real time    0.12
       DOS:  cpu time    0.00: real time    0.00
    --------------------------------------------
      LOOP:  cpu time    0.12: real time    0.12

 eigenvalue-minimisations  :   112
 total energy-change (2. order) :-0.1516866E+03  (-0.1386968E+03)
 number of electron      64.0000000 magnetization 
 augmentation part       64.0000000 magnetization 

 Free energy of the ion-electron system (eV)
  ---------------------------------------------------
  alpha Z        PSCENC =        26.90277238
  Ewald energy   TEWEN  =     -1828.27265653
  -1/2 Hartree   DENC   =       -88.05509426
  -exchange  EXHF       =         0.00000000
  -V(xc)+E(xc)   XCENC  =      -148.82706839
  PAW double counting   =      1409.98079384    -1128.48828464
  entropy T*S    EENTRO =        -0.01963539
  eigenvalues    EBANDS =        36.04152032
  atomic energy  EATOM  =      1648.98057850
  ---------------------------------------------------
  free energy    TOTEN  =       -71.75707419 eV

  energy without entropy =      -71.73743880  energy(sigma->0) =      -71.74725649


--------------------------------------------------------------------------------------------------------




----------------------------------------- Iteration    1(   3)  ---------------------------------------


     EDDAV:  cpu time    0.11: real time    0.11
       DOS:  cpu time    0.00: real time    0.00
    --------------------------------------------
      LOOP:  cpu time    0.11: real time    0.11

 eigenvalue-minimisations  :   104
 total energy-change (2. order) :-0.9152230E+01  (-0.8708288E+01)
 number of electron      64.0000000 magnetization 
 augmentation part       64.0000000 magnetization 

 Free energy of the ion-electron system (eV)
  ---------------------------------------------------
  alpha Z        PSCENC =        26.90277238
  Ewald energy   TEWEN  =     -1828.27265653
  -1/2 Hartree   DENC   =       -88.05509426
  -exchange  EXHF       =         0.00000000
  -V(xc)+E(xc)   XCENC  =      -148.82706839
  PAW double counting   =      1409.98079384    -1128.48828464
  entropy T*S    EENTRO =        -0.00121350
  eigenvalues    EBANDS =        26.87086795
  atomic energy  EATOM  =      1648.98057850
  ---------------------------------------------------
  free energy    TOTEN  =       -80.90930466 eV

  energy without entropy =      -80.90809117  energy(sigma->0) =      -80.90869791


--------------------------------------------------------------------------------------------------------




----------------------------------------- Iteration    1(   4)  ---------------------------------------


     EDDAV:  cpu time    0.11: real time    0.11
       DOS:  cpu time    0.00: real time    0.00
    --------------------------------------------
      LOOP:  cpu time    0.11: real time    0.11

 eigenvalue-minimisations  :   104
 total energy-change (2. order) :-0.2208784E+00  (-0.2190581E+00)
 number of electron      64.0000000 magnetization 
 augmentation part       64.0000000 magnetization 

 Free energy of the ion-electron system (eV)
  ---------------------------------------------------
  alpha Z        PSCENC =        26.90277238
  Ewald energy   TEWEN  =     -1828.27265653
  -1/2 Hartree   DENC   =       -88.05509426
  -exchange  EXHF       =         0.00000000
  -V(xc)+E(xc)   XCENC  =      -148.82706839
  PAW double counting   =      1409.98079384    -1128.48828464
  entropy T*S    EENTRO =        -0.00112949
  eigenvalues    EBANDS =        26.64990554
  atomic energy  EATOM  =      1648.98057850
  ---------------------------------------------------
  free energy    TOTEN  =       -81.13018308 eV

  energy without entropy =      -81.12905358  energy(sigma->0) =      -81.12961833


--------------------------------------------------------------------------------------------------------




----------------------------------------- Iteration    1(   5)  ---------------------------------------


     EDDAV:  cpu time    0.11: real time    0.11
       DOS:  cpu time    0.00: real time    0.00
    CHARGE:  cpu time    0.02: real time    0.02
    MIXING:  cpu time    0.00: real time    0.00
    --------------------------------------------
      LOOP:  cpu time    0.14: real time    0.14

 eigenvalue-minimisations  :   108
 total energy-change (2. order) :-0.1019117E-01  (-0.1018779E-01)
 number of electron      63.9999921 magnetization 
 augmentation part       -3.7020887 magnetization 

 Broyden mixing:
  rms(total) = 0.16059E+01    rms(broyden)= 0.16058E+01
  rms(prec ) = 0.17872E+01
  weight for this iteration     100.00

 Free energy of the ion-electron system (eV)
  ---------------------------------------------------
  alpha Z        PSCENC =        26.90277238
  Ewald energy   TEWEN  =     -1828.27265653
  -1/2 Hartree   DENC   =       -88.05509426
  -exchange  EXHF       =         0.00000000
  -V(xc)+E(xc)   XCENC  =      -148.82706839
  PAW double counting   =      1409.98079384    -1128.48828464
  entropy T*S    EENTRO =        -0.00111727
  eigenvalues    EBANDS =        26.63970215
  atomic energy  EATOM  =      1648.98057850
  ---------------------------------------------------
  free energy    TOTEN  =       -81.14037425 eV

  energy without entropy =      -81.13925697  energy(sigma->0) =      -81.13981561


--------------------------------------------------------------------------------------------------------




----------------------------------------- Iteration    1(   6)  ---------------------------------------


    POTLOK:  cpu time    0.06: real time    0.06
    SETDIJ:  cpu time    0.00: real time    0.00
    EDDIAG:  cpu time    0.02: real time    0.02
  RMM-DIIS:  cpu time    0.09: real time    0.09
    ORTHCH:  cpu time    0.00: real time    0.00
       DOS:  cpu time    0.00: real time    0.00
    CHARGE:  cpu time    0.02: real time    0.02
    MIXING:  cpu time    0.00: real time    0.00
    --------------------------------------------
      LOOP:  cpu time    0.20: real time    0.20

 eigenvalue-minimisations  :    88
 total energy-change (2. order) : 0.1438506E+01  (-0.8203328E-01)
 number of electron      63.9999922 magnetization 
 augmentation part       -3.6453399 magnetization 

 Broyden mixing:
  rms(total) = 0.99524E+00    rms(broyden)= 0.99524E+00
  rms(prec ) = 0.10994E+01
  weight for this iteration     100.00

 eigenvalues of (default mixing * dielectric matrix)
  average eigenvalue GAMMA=   2.6176
  2.6176

 Free energy of the ion-electron system (eV)
  ---------------------------------------------------
  alpha Z        PSCENC =        26.90277238
  Ewald energy   TEWEN  =     -1828.27265653
  -1/2 Hartree   DENC   =      -102.71728035
  -exchange  EXHF       =         0.00000000
  -V(xc)+E(xc)   XCENC  =      -146.59604707
  PAW double counting   =      3400.94964570    -3120.46491838
  entropy T*S    EENTRO =        -0.00986210
  eigenvalues    EBANDS =        41.52589937
  atomic energy  EATOM  =      1648.98057850
  ---------------------------------------------------
  free energy    TOTEN  =       -79.70186850 eV

  energy without entropy =      -79.69200640  energy(sigma->0) =      -79.69693745


--------------------------------------------------------------------------------------------------------




----------------------------------------- Iteration    1(   7)  ---------------------------------------


    POTLOK:  cpu time    0.06: real time    0.06
    SETDIJ:  cpu time    0.00: real time    0.00
    EDDIAG:  cpu time    0.02: real time    0.02
  RMM-DIIS:  cpu time    0.11: real time    0.11
    ORTHCH:  cpu time    0.00: real time    0.00
       DOS:  cpu time    0.00: real time    0.00
    CHARGE:  cpu time    0.02: real time    0.03
    MIXING:  cpu time    0.00: real time    0.01
    --------------------------------------------
      LOOP:  cpu time    0.22: real time    0.23

 eigenvalue-minimisations  :    89
 total energy-change (2. order) : 0.5900162E+00  (-0.1954465E+00)
 number of electron      63.9999924 magnetization 
 augmentation part       -3.5706482 magnetization 

 Broyden mixing:
  rms(total) = 0.66935E-01    rms(broyden)= 0.66928E-01
  rms(prec ) = 0.82030E-01
  weight for this iteration     100.00

 eigenvalues of (default mixing * dielectric matrix)
  average eigenvalue GAMMA=   2.2644
  2.2644  2.2644

 Free energy of the ion-electron system (eV)
  ---------------------------------------------------
  alpha Z        PSCENC =        26.90277238
  Ewald energy   TEWEN  =     -1828.27265653
  -1/2 Hartree   DENC   =      -129.00195079
  -exchange  EXHF       =         0.00000000
  -V(xc)+E(xc)   XCENC  =      -142.55049567
  PAW double counting   =      8821.40024985    -8542.30612824
  entropy T*S    EENTRO =        -0.08879087
  eigenvalues    EBANDS =        65.82456907
  atomic energy  EATOM  =      1648.98057850
  ---------------------------------------------------
  free energy    TOTEN  =       -79.11185231 eV

  energy without entropy =      -79.02306144  energy(sigma->0) =      -79.06745688


--------------------------------------------------------------------------------------------------------




----------------------------------------- Iteration    1(   8)  ---------------------------------------


    POTLOK:  cpu time    0.08: real time    0.09
    SETDIJ:  cpu time    0.01: real time    0.01
    EDDIAG:  cpu time    0.02: real time    0.03
  RMM-DIIS:  cpu time    0.09: real time    0.10
    ORTHCH:  cpu time    0.00: real time    0.00
       DOS:  cpu time    0.00: real time    0.00
    CHARGE:  cpu time    0.02: real time    0.03
    MIXING:  cpu time    0.00: real time    0.00
    --------------------------------------------
      LOOP:  cpu time    0.23: real time    0.26

 eigenvalue-minimisations  :    94
 total energy-change (2. order) :-0.9779332E-02  (-0.4334582E-02)
 number of electron      63.9999924 magnetization 
 augmentation part       -3.5818671 magnetization 

 Broyden mixing:
  rms(total) = 0.27156E-01    rms(broyden)= 0.27155E-01
  rms(prec ) = 0.31095E-01
  weight for this iteration     100.00

 eigenvalues of (default mixing * dielectric matrix)
  average eigenvalue GAMMA=   2.3463
  3.1192  1.9598  1.9598

 Free energy of the ion-electron system (eV)
  ---------------------------------------------------
  alpha Z        PSCENC =        26.90277238
  Ewald energy   TEWEN  =     -1828.27265653
  -1/2 Hartree   DENC   =      -126.48661502
  -exchange  EXHF       =         0.00000000
  -V(xc)+E(xc)   XCENC  =      -142.84024946
  PAW double counting   =      8583.40217721    -8303.93083044
  entropy T*S    EENTRO =        -0.05861146
  eigenvalues    EBANDS =        63.18180318
  atomic energy  EATOM  =      1648.98057850
  ---------------------------------------------------
  free energy    TOTEN  =       -79.12163164 eV

  energy without entropy =      -79.06302018  energy(sigma->0) =      -79.09232591


--------------------------------------------------------------------------------------------------------




----------------------------------------- Iteration    1(   9)  ---------------------------------------


    POTLOK:  cpu time    0.07: real time    0.08
    SETDIJ:  cpu time    0.00: real time    0.00
    EDDIAG:  cpu time    0.02: real time    0.02
  RMM-DIIS:  cpu time    0.10: real time    0.10
    ORTHCH:  cpu time    0.00: real time    0.00
       DOS:  cpu time    0.00: real time    0.00
    CHARGE:  cpu time    0.02: real time    0.02
    MIXING:  cpu time    0.00: real time    0.00
    --------------------------------------------
      LOOP:  cpu time    0.22: real time    0.23

 eigenvalue-minimisations  :    96
 total energy-change (2. order) :-0.4406309E-02  (-0.6619568E-03)
 number of electron      63.9999924 magnetization 
 augmentation part       -3.5814054 magnetization 

 Broyden mixing:
  rms(total) = 0.21764E-01    rms(broyden)= 0.21764E-01
  rms(prec ) = 0.22516E-01
  weight for this iteration     100.00

 eigenvalues of (default mixing * dielectric matrix)
  average eigenvalue GAMMA=   2.3156
  0.9530  2.9328  2.6883  2.6883

 Free energy of the ion-electron system (eV)
  ---------------------------------------------------
  alpha Z        PSCENC =        26.90277238
  Ewald energy   TEWEN  =     -1828.27265653
  -1/2 Hartree   DENC   =      -127.47260291
  -exchange  EXHF       =         0.00000000
  -V(xc)+E(xc)   XCENC  =      -142.67690062
  PAW double counting   =      8777.63981419    -8498.18768876
  entropy T*S    EENTRO =        -0.05773898
  eigenvalues    EBANDS =        64.01838478
  atomic energy  EATOM  =      1648.98057850
  ---------------------------------------------------
  free energy    TOTEN  =       -79.12603795 eV

  energy without entropy =      -79.06829897  energy(sigma->0) =      -79.09716846


--------------------------------------------------------------------------------------------------------




----------------------------------------- Iteration    1(  10)  ---------------------------------------


    POTLOK:  cpu time    0.06: real time    0.06
    SETDIJ:  cpu time    0.00: real time    0.00
    EDDIAG:  cpu time    0.02: real time    0.02
  RMM-DIIS:  cpu time    0.10: real time    0.10
    ORTHCH:  cpu time    0.00: real time    0.00
       DOS:  cpu time    0.00: real time    0.00
    CHARGE:  cpu time    0.02: real time    0.02
    MIXING:  cpu time    0.00: real time    0.00
    --------------------------------------------
      LOOP:  cpu time    0.21: real time    0.21

 eigenvalue-minimisations  :    96
 total energy-change (2. order) :-0.7496876E-03  (-0.1509086E-03)
 number of electron      63.9999924 magnetization 
 augmentation part       -3.5819303 magnetization 

 Broyden mixing:
  rms(total) = 0.84748E-02    rms(broyden)= 0.84747E-02
  rms(prec ) = 0.85437E-02
  weight for this iteration     100.00

 eigenvalues of (default mixing * dielectric matrix)
  average eigenvalue GAMMA=   1.9722
  3.0594  2.4836  2.2640  1.0833  0.9706

 Free energy of the ion-electron system (eV)
  ---------------------------------------------------
  alpha Z        PSCENC =        26.90277238
  Ewald energy   TEWEN  =     -1828.27265653
  -1/2 Hartree   DENC   =      -127.42257331
  -exchange  EXHF       =         0.00000000
  -V(xc)+E(xc)   XCENC  =      -142.69244559
  PAW double counting   =      8601.10566246    -8321.65206218
  entropy T*S    EENTRO =        -0.05484917
  eigenvalues    EBANDS =        63.97878582
  atomic energy  EATOM  =      1648.98057850
  ---------------------------------------------------
  free energy    TOTEN  =       -79.12678764 eV

  energy without entropy =      -79.07193847  energy(sigma->0) =      -79.09936306


--------------------------------------------------------------------------------------------------------




----------------------------------------- Iteration    1(  11)  ---------------------------------------


    POTLOK:  cpu time    0.06: real time    0.06
    SETDIJ:  cpu time    0.00: real time    0.00
    EDDIAG:  cpu time    0.02: real time    0.02
  RMM-DIIS:  cpu time    0.12: real time    0.12
    ORTHCH:  cpu time    0.00: real time    0.00
       DOS:  cpu time    0.00: real time    0.00
    CHARGE:  cpu time    0.02: real time    0.02
    MIXING:  cpu time    0.00: real time    0.00
    --------------------------------------------
      LOOP:  cpu time    0.23: real time    0.23

 eigenvalue-minimisations  :    89
 total energy-change (2. order) : 0.2734146E-04  (-0.7243140E-05)
 number of electron      63.9999923 magnetization 
 augmentation part       -3.5824452 magnetization 

 Broyden mixing:
  rms(total) = 0.14229E-02    rms(broyden)= 0.14229E-02
  rms(prec ) = 0.15518E-02
  weight for this iteration     100.00

 eigenvalues of (default mixing * dielectric matrix)
  average eigenvalue GAMMA=   2.2123
  3.1765  3.1765  2.5832  2.5018  0.9981  0.8378

 Free energy of the ion-electron system (eV)
  ---------------------------------------------------
  alpha Z        PSCENC =        26.90277238
  Ewald energy   TEWEN  =     -1828.27265653
  -1/2 Hartree   DENC   =      -127.35915306
  -exchange  EXHF       =         0.00000000
  -V(xc)+E(xc)   XCENC  =      -142.69605613
  PAW double counting   =      8644.56473676    -8365.09212478
  entropy T*S    EENTRO =        -0.05425785
  eigenvalues    EBANDS =        63.89940042
  atomic energy  EATOM  =      1648.98057850
  ---------------------------------------------------
  free energy    TOTEN  =       -79.12676030 eV

  energy without entropy =      -79.07250245  energy(sigma->0) =      -79.09963138


--------------------------------------------------------------------------------------------------------




----------------------------------------- Iteration    1(  12)  ---------------------------------------


    POTLOK:  cpu time    0.06: real time    0.06
    SETDIJ:  cpu time    0.00: real time    0.00
    EDDIAG:  cpu time    0.02: real time    0.02
  RMM-DIIS:  cpu time    0.07: real time    0.07
    ORTHCH:  cpu time    0.00: real time    0.00
       DOS:  cpu time    0.00: real time    0.00
    --------------------------------------------
      LOOP:  cpu time    0.16: real time    0.16

 eigenvalue-minimisations  :    64
 total energy-change (2. order) :-0.4142961E-05  (-0.1087093E-05)
 number of electron      63.9999923 magnetization 
 augmentation part       -3.5824452 magnetization 

 Free energy of the ion-electron system (eV)
  ---------------------------------------------------
  alpha Z        PSCENC =        26.90277238
  Ewald energy   TEWEN  =     -1828.27265653
  -1/2 Hartree   DENC   =      -127.39071941
  -exchange  EXHF       =         0.00000000
  -V(xc)+E(xc)   XCENC  =      -142.69444599
  PAW double counting   =      8643.76357316    -8364.29064780
  entropy T*S    EENTRO =        -0.05426652
  eigenvalues    EBANDS =        63.92904778
  atomic energy  EATOM  =      1648.98057850
  ---------------------------------------------------
  free energy    TOTEN  =       -79.12676444 eV

  energy without entropy =      -79.07249792  energy(sigma->0) =      -79.09963118


--------------------------------------------------------------------------------------------------------




 average (electrostatic) potential at core
  the test charge radii are     0.9892
  (the norm of the test charge is              1.0000)
       1 -83.0308       2 -83.0308       3 -83.0308       4 -83.0308       5 -83.0308
       6 -83.0308       7 -83.0308       8 -83.0308       9 -83.0308      10 -83.0308
      11 -83.0308      12 -83.0308      13 -83.0308      14 -83.0308      15 -83.0308
      16 -83.0308
 
 
 
 E-fermi :   6.2926     XC(G=0):  -9.3172     alpha+bet :-11.9799


 k-point   1 :       0.0000    0.0000    0.0000
  band No.  band energies     occupation 
      1      -6.0209      2.00000
      2      -4.9367      2.00000
      3      -4.9367      2.00000
      4      -1.8663      2.00000
      5      -1.8663      2.00000
      6      -1.8663      2.00000
      7      -1.8663      2.00000
      8      -1.8663      2.00000
      9      -1.8663      2.00000
     10      -1.7000      2.00000
     11      -1.7000      2.00000
     12      -1.7000      2.00000
     13      -1.7000      2.00000
     14       2.0754      2.00000
     15       2.0754      2.00000
     16       2.0754      2.00000
     17       2.0754      2.00000
     18       2.4477      2.00000
     19       2.4477      2.00000
     20       3.0836      2.00000
     21       3.0836      2.00000
     22       3.0836      2.00000
     23       3.0836      2.00000
     24       3.0845      2.00000
     25       3.0845      2.00000
     26       4.0540      2.00000
     27       4.0540      2.00000
     28       4.0540      2.00000
     29       4.0540      2.00000
     30       5.9673      1.97857
     31       5.9745      1.97551
     32       5.9745      1.97551
     33       6.6482      0.01191
     34       6.6482      0.01191
     35       6.6494      0.01164
     36       6.6494      0.01164
     37       6.6494      0.01164
     38       6.6494      0.01164
     39       7.0659      0.00000
     40       7.0659      0.00000
     41       8.4854      0.00000
     42       8.4860      0.00000
     43       8.4861      0.00000
     44       9.0676      0.00000


--------------------------------------------------------------------------------------------------------


 soft charge-density along one line, spin component           1
         0         1         2         3         4         5         6         7         8         9
 total charge-density along one line
 
 pseudopotential strength for first ion, spin component:           1
 18.395  25.664  -0.000   0.000  -0.000  -0.000   0.000  -0.000
 25.664  35.809  -0.000   0.000  -0.000  -0.000   0.000  -0.000
 -0.000  -0.000   4.177   0.000   0.000   7.783   0.000   0.000
  0.000   0.000   0.000   4.178  -0.000   0.000   7.786  -0.000
 -0.000  -0.000   0.000  -0.000   4.177   0.000  -0.000   7.783
 -0.000  -0.000   7.783   0.000   0.000  14.513   0.000   0.000
  0.000   0.000   0.000   7.786  -0.000   0.000  14.518  -0.000
 -0.000  -0.000   0.000  -0.000   7.783   0.000  -0.000  14.513
 total augmentation occupancy for first ion, spin component:           1
  6.229  -2.439   0.000   0.000   0.000   0.000   0.000   0.000
 -2.439   1.033   0.000   0.000   0.000   0.000   0.000   0.000
  0.000   0.000   3.620   0.000   0.000  -0.880   0.000   0.000
  0.000   0.000   0.000   3.284   0.000   0.000  -0.813   0.000
  0.000   0.000   0.000   0.000   3.620   0.000   0.000  -0.880
  0.000   0.000  -0.880   0.000   0.000   0.223   0.000   0.000
  0.000   0.000   0.000  -0.813   0.000   0.000   0.209   0.000
  0.000   0.000   0.000   0.000  -0.880   0.000   0.000   0.223


------------------------ aborting loop because EDIFF is reached ----------------------------------------


    CHARGE:  cpu time    0.02: real time    0.02
    FORLOC:  cpu time    0.01: real time    0.01
    FORNL :  cpu time    0.04: real time    0.04
    STRESS:  cpu time    0.06: real time    0.06
    FORCOR:  cpu time    0.07: real time    0.07
    FORHAR:  cpu time    0.02: real time    0.02
    MIXING:  cpu time    0.00: real time    0.00

  FORCE on cell =-STRESS in cart. coord.  units (eV):
  Direction    XX          YY          ZZ          XY          YZ          ZX
  --------------------------------------------------------------------------------------
  Alpha Z    26.90277    26.90277    26.90277
  Ewald    -609.42618  -609.42618  -609.42618     0.00000    -0.00000    -0.00000
  Hartree    42.21744    42.21744    42.96369    -0.00000    -0.00000    -0.00000
  E(xc)    -204.82958  -204.82958  -203.93876     0.00000    -0.00000     0.00000
  Local    -247.21635  -247.21635  -224.77681     0.00000    -0.00000     0.00000
  n-local   625.49522   625.49519   610.56968    -0.00005    -0.00001    -0.00001
  augment   -91.94742   -91.94742   -88.93668     0.00000     0.00000     0.00000
  Kinetic   480.09781   480.09773   436.51574     0.00003    -0.00000    -0.00000
  Fock        0.00000     0.00000     0.00000     0.00000     0.00000     0.00000
  -------------------------------------------------------------------------------------
  Total      21.29365    21.29365   -10.12654     0.00000    -0.00000     0.00000
  in kB     106.50335   106.50335   -50.64937     0.00000    -0.00000     0.00000
  external pressure =       54.12 kB  Pullay stress =        0.00 kB


 VOLUME and BASIS-vectors are now :
 -----------------------------------------------------------------------------
  energy-cutoff  :      245.34
  volume of cell :      320.33
      direct lattice vectors                 reciprocal lattice vectors
     5.430700000  0.000000000  0.000000000     0.184138325  0.000000000  0.000000000
     0.000000000  5.430700000  0.000000000     0.000000000  0.184138325  0.000000000
     0.000000000  0.000000000 10.861400000     0.000000000  0.000000000  0.092069162

  length of vectors
     5.430700000  5.430700000 10.861400000     0.184138325  0.184138325  0.092069162


 FORCES acting on ions
    electron-ion (+dipol)            ewald-force                    non-local-force                 convergence-correction
 -----------------------------------------------------------------------------------------------
   -.203E-13 -.895E-15 0.430E-14   -.113E-13 -.111E-14 0.124E-13   -.106E-20 0.254E-20 -.847E-21   -.608E-15 -.989E-15 0.206E-13
   -.196E-13 -.178E-13 -.926E-14   -.104E-13 0.377E-14 0.000E+00   0.203E-19 0.000E+00 -.381E-20   -.121E-14 0.485E-15 -.427E-13
   -.236E-13 0.163E-14 0.374E-12   -.104E-13 -.344E-14 0.000E+00   0.106E-20 0.678E-20 -.635E-20   0.405E-14 -.682E-15 -.435E-13
   -.262E-13 0.130E-12 0.186E-12   -.622E-14 0.666E-15 -.355E-14   0.868E-20 0.847E-21 -.593E-20   0.383E-14 0.143E-14 0.207E-13
   -.190E-13 -.108E-12 0.166E-12   -.673E-14 -.136E-13 -.711E-14   -.434E-20 0.254E-20 -.169E-20   -.103E-13 -.137E-14 -.469E-13
   0.000E+00 0.109E-12 -.251E-14   0.955E-14 -.323E-15 -.450E-14   -.424E-21 0.212E-21 0.254E-20   0.549E-14 -.228E-14 -.125E-13
   0.654E-15 0.864E-13 -.153E-13   0.287E-15 -.171E-13 -.711E-14   -.127E-20 0.593E-20 0.106E-21   0.540E-14 -.515E-14 -.465E-13
   0.262E-14 -.327E-12 0.414E-12   0.154E-13 -.537E-15 -.455E-14   -.381E-20 0.000E+00 0.593E-20   -.109E-13 -.460E-14 -.125E-13
   -.150E-13 -.679E-15 -.261E-13   0.000E+00 0.142E-13 0.000E+00   -.656E-20 -.169E-20 -.148E-20   0.180E-14 0.184E-14 -.274E-13
   -.393E-14 -.130E-13 -.506E-13   -.107E-13 0.355E-14 0.000E+00   0.580E-20 -.847E-21 0.551E-20   0.123E-14 -.124E-14 0.394E-13
   -.262E-13 0.499E-15 -.687E-13   -.107E-13 -.355E-14 0.000E+00   0.180E-20 0.169E-20 0.212E-20   0.164E-14 0.115E-14 0.396E-13
   -.307E-13 -.195E-12 0.220E-12   0.711E-14 0.142E-13 -.142E-13   -.144E-19 0.254E-20 -.148E-20   0.147E-14 -.163E-14 -.282E-13
   -.131E-14 -.804E-13 -.287E-12   0.875E-14 0.294E-15 -.178E-13   0.148E-19 -.466E-20 0.164E-20   -.104E-13 -.225E-14 0.444E-13
   0.196E-14 0.113E-12 -.267E-13   0.976E-14 0.526E-15 -.357E-14   0.260E-19 -.847E-21 -.762E-20   0.500E-14 -.230E-14 0.121E-13
   0.170E-13 0.854E-13 -.461E-13   0.128E-13 -.182E-14 -.391E-13   0.717E-20 0.635E-20 -.339E-20   0.562E-14 -.437E-14 0.447E-13
   -.183E-13 -.319E-12 -.625E-13   0.156E-13 0.392E-15 -.355E-14   -.140E-20 -.212E-20 0.847E-21   -.102E-13 -.455E-14 0.128E-13
 -----------------------------------------------------------------------------------------------
   -.182E-12 -.536E-12 0.770E-12   0.129E-13 -.384E-14 -.926E-13   0.524E-19 0.193E-19 -.139E-19   -.798E-14 -.265E-13 -.261E-13
 
 
 POSITION                                       TOTAL-FORCE (eV/Angst)
 -----------------------------------------------------------------------------------
      0.00000      0.00000      0.00000         0.000000      0.000000     -0.000000
      0.00000      2.71535      2.71535        -0.000000     -0.000000      0.000000
      2.71535      0.00000      2.71535        -0.000000      0.000000      0.000000
      2.71535      2.71535      0.00000        -0.000000     -0.000000     -0.000000
      4.07302      1.35767      4.07302        -0.000000     -0.000000      0.000000
      1.35767      1.35767      1.35767         0.000000     -0.000000     -0.000000
      1.35767      4.07302      4.07302        -0.000000     -0.000000     -0.000000
      4.07302      4.07302      1.35767        -0.000000     -0.000000      0.000000
      0.00000      0.00000      5.43070         0.000000      0.000000      0.000000
      0.00000      2.71535      8.14605        -0.000000      0.000000     -0.000000
      2.71535      0.00000      8.14605         0.000000      0.000000     -0.000000
      2.71535      2.71535      5.43070         0.000000     -0.000000     -0.000000
      4.07302      1.35767      9.50372         0.000000     -0.000000      0.000000
      1.35767      1.35767      6.78838        -0.000000     -0.000000     -0.000000
      1.35767      4.07302      9.50372         0.000000     -0.000000      0.000000
      4.07302      4.07302      6.78838        -0.000000     -0.000000     -0.000000
 -----------------------------------------------------------------------------------
    total drift:                               -0.000000     -0.000000      0.000000


--------------------------------------------------------------------------------------------------------



  FREE ENERGIE OF THE ION-ELECTRON SYSTEM (eV)
  ---------------------------------------------------
  free  energy   TOTEN  =       -79.12676444 eV

  energy  without entropy=      -79.07249792  energy(sigma->0) =      -79.09963118
 


--------------------------------------------------------------------------------------------------------


    POTLOK:  cpu time    0.07: real time    0.07


--------------------------------------------------------------------------------------------------------


 stress matrix after NEB project (eV)
     21.29365      0.00000      0.00000
      0.00000     21.29365      0.00000
      0.00000     -0.00000    -10.12654
  FORCES: max atom, RMS     0.000000    0.000000
  FORCE total and by dimension    0.000000    0.000000
  Stress total and by dimension   31.770833   21.293651
     LOOP+:  cpu time    2.74: real time    2.83
    4ORBIT:  cpu time    0.00: real time    0.00

 ----------------------------------------------------------------------------- 
|                                                                             |
|           W    W    AA    RRRRR   N    N  II  N    N   GGGG   !!!           |
|           W    W   A  A   R    R  NN   N  II  NN   N  G    G  !!!           |
|           W    W  A    A  R    R  N N  N  II  N N  N  G       !!!           |
|           W WW W  AAAAAA  RRRRR   N  N N  II  N  N N  G  GGG   !            |
|           WW  WW  A    A  R   R   N   NN  II  N   NN  G    G                |
|           W    W  A    A  R    R  N    N  II  N    N   GGGG   !!!           |
|                                                                             |
|      The partial DOS and the PROCAR file are not evaluated for NPAR/=1      |
|      please rerun with NPAR=1                                               |
|                                                                             |
 ----------------------------------------------------------------------------- 


 total amount of memory used by VASP on root node    40652. kBytes
========================================================================

   base      :      30000. kBytes
   nonl-proj :        887. kBytes
   fftplans  :       3173. kBytes
   grid      :       6033. kBytes
   one-center:         49. kBytes
   wavefun   :        510. kBytes
 
  
  
 General timing and accounting informations for this job:
 ========================================================
  
                  Total CPU time used (sec):        3.716
                            User time (sec):        3.464
                          System time (sec):        0.252
                         Elapsed time (sec):        3.861
  
                   Maximum memory used (kb):       55888.
                   Average memory used (kb):           0.
  
                          Minor page faults:        24114
                          Major page faults:            3
                 Voluntary context switches:           23
