<?xml version="1.0" encoding="ISO-8859-1"?>
<modeling>
 <generator>
  <i name="program" type="string">vasp </i>
  <i name="version" type="string">5.3.5  </i>
  <i name="subversion" type="string">31Mar14 (build Aug 21 2014 10:40:35) complex                          parallel </i>
  <i name="platform" type="string">LinuxIFC </i>
  <i name="date" type="string">2018 05 03 </i>
  <i name="time" type="string">10:42:52 </i>
 </generator>
 <incar>
  <i type="string" name="SYSTEM"> Fe2O3</i>
  <i type="int" name="ISTART">     1</i>
  <i type="string" name="PREC">normal</i>
  <i type="string" name="ALGO"> VeryFast</i>
  <i type="int" name="ISPIN">     2</i>
  <i type="int" name="ICHARG">     1</i>
  <i type="int" name="NELM">   100</i>
  <i type="int" name="IBRION">     2</i>
  <i name="EDIFF">      0.00001000</i>
  <i type="int" name="NSW">  6000</i>
  <i type="int" name="ISYM">     0</i>
  <i name="ENCUT">    400.00000000</i>
  <i type="string" name="LREAL"> Auto</i>
  <i type="int" name="ISMEAR">     0</i>
  <i name="SIGMA">      0.20000000</i>
  <i type="int" name="NWRITE">     2</i>
  <i type="logical" name="LWAVE"> T  </i>
  <i type="logical" name="LCHARG"> T  </i>
  <i type="logical" name="LVTOT"> F  </i>
  <i type="logical" name="LELF"> F  </i>
  <i type="int" name="NELM">   100</i>
  <i type="string" name="GGA"> PE</i>
  <i type="int" name="IDIPOL">     3</i>
 </incar>
 <kpoints>
  <generation param="Monkhorst-Pack">
   <v type="int" name="divisions">       1        1        1 </v>
   <v name="usershift">      0.00000000       0.00000000       0.00000000 </v>
   <v name="genvec1">      1.00000000       0.00000000       0.00000000 </v>
   <v name="genvec2">      0.00000000       1.00000000       0.00000000 </v>
   <v name="genvec3">      0.00000000       0.00000000       1.00000000 </v>
   <v name="shift">      0.00000000       0.00000000       0.00000000 </v>
  </generation>
  <varray name="kpointlist" >
   <v>       0.00000000       0.00000000       0.00000000 </v>
  </varray>
  <varray name="weights" >
   <v>       1.00000000 </v>
  </varray>
 </kpoints>
 <parameters>
  <separator name="general" >
   <i type="string" name="SYSTEM">Fe2O3</i>
   <i type="logical" name="LCOMPAT"> F  </i>
  </separator>
  <separator name="electronic" >
   <i type="string" name="PREC">normal</i>
   <i name="ENMAX">    400.00000000</i>
   <i name="ENAUG">    644.87300000</i>
   <i name="EDIFF">      0.00001000</i>
   <i type="int" name="IALGO">    48</i>
   <i type="int" name="IWAVPR">    11</i>
   <i type="int" name="NBANDS">   268</i>
   <i name="NELECT">    368.00000000</i>
   <i type="int" name="TURBO">     0</i>
   <i type="int" name="IRESTART">     0</i>
   <i type="int" name="NREBOOT">     0</i>
   <i type="int" name="NMIN">     0</i>
   <i name="EREF">      0.00000000</i>
   <separator name="electronic smearing" >
    <i type="int" name="ISMEAR">     0</i>
    <i name="SIGMA">      0.20000000</i>
    <i name="KSPACING">      0.50000000</i>
    <i type="logical" name="KGAMMA"> T  </i>
   </separator>
   <separator name="electronic projectors" >
    <i type="logical" name="LREAL"> T  </i>
    <v name="ROPT">     -0.00050000     -0.00050000</v>
    <i type="int" name="LMAXPAW">  -100</i>
    <i type="int" name="LMAXMIX">     2</i>
    <i type="logical" name="NLSPLINE"> F  </i>
   </separator>
   <separator name="electronic startup" >
    <i type="int" name="ISTART">     0</i>
    <i type="int" name="ICHARG">     1</i>
    <i type="int" name="INIWAV">     1</i>
   </separator>
   <separator name="electronic spin" >
    <i type="int" name="ISPIN">     2</i>
    <i type="logical" name="LNONCOLLINEAR"> F  </i>
    <v name="MAGMOM">      1.00000000      1.00000000      1.00000000      1.00000000      1.00000000      1.00000000      1.00000000      1.00000000      1.00000000      1.00000000      1.00000000      1.00000000      1.00000000      1.00000000      1.00000000      1.00000000      1.00000000      1.00000000      1.00000000      1.00000000
      1.00000000      1.00000000      1.00000000      1.00000000      1.00000000      1.00000000      1.00000000      1.00000000      1.00000000      1.00000000      1.00000000      1.00000000      1.00000000      1.00000000      1.00000000      1.00000000      1.00000000      1.00000000      1.00000000      1.00000000
      1.00000000      1.00000000      1.00000000      1.00000000      1.00000000      1.00000000      1.00000000      1.00000000      1.00000000      1.00000000      1.00000000      1.00000000      1.00000000      1.00000000      1.00000000      1.00000000      1.00000000      1.00000000      1.00000000      1.00000000
      1.00000000      1.00000000      1.00000000      1.00000000      1.00000000      1.00000000      1.00000000      1.00000000      1.00000000      1.00000000      1.00000000      1.00000000      1.00000000      1.00000000      1.00000000      1.00000000      1.00000000      1.00000000      1.00000000      1.00000000
</v>
    <i name="NUPDOWN">     -1.00000000</i>
    <i type="logical" name="LSORBIT"> F  </i>
    <v name="SAXIS">      0.00000000      0.00000000      1.00000000</v>
    <i type="logical" name="LSPIRAL"> F  </i>
    <v name="QSPIRAL">      0.00000000      0.00000000      0.00000000</v>
    <i type="logical" name="LZEROZ"> F  </i>
   </separator>
   <separator name="electronic exchange-correlation" >
    <i type="logical" name="LASPH"> F  </i>
    <i type="logical" name="LMETAGGA"> F  </i>
   </separator>
   <separator name="electronic convergence" >
    <i type="int" name="NELM">   100</i>
    <i type="int" name="NELMDL">     0</i>
    <i type="int" name="NELMIN">     2</i>
    <i name="ENINI">    400.00000000</i>
    <separator name="electronic convergence detail" >
     <i type="logical" name="LDIAG"> T  </i>
     <i type="logical" name="LSUBROT"> F  </i>
     <i name="WEIMIN">      0.00100000</i>
     <i name="EBREAK">      0.00000001</i>
     <i name="DEPER">      0.30000000</i>
     <i type="int" name="NRMM">     4</i>
     <i name="TIME">      0.40000000</i>
    </separator>
   </separator>
   <separator name="electronic mixer" >
    <i name="AMIX">      0.40000000</i>
    <i name="BMIX">      1.00000000</i>
    <i name="AMIN">      0.10000000</i>
    <i name="AMIX_MAG">      1.60000000</i>
    <i name="BMIX_MAG">      1.00000000</i>
    <separator name="electronic mixer details" >
     <i type="int" name="IMIX">     4</i>
     <i type="int" name="MAXMIX">   -45</i>
     <i name="WC">    100.00000000</i>
     <i type="int" name="INIMIX">     1</i>
     <i type="int" name="MIXPRE">     1</i>
     <i type="int" name="MREMOVE">     5</i>
    </separator>
   </separator>
   <separator name="electronic dipolcorrection" >
    <i type="logical" name="LDIPOL"> F  </i>
    <i type="logical" name="LMONO"> F  </i>
    <i type="int" name="IDIPOL">     3</i>
    <i name="EPSILON">      1.00000000</i>
    <v name="DIPOL">   -100.00000000   -100.00000000   -100.00000000</v>
    <i name="EFIELD">      0.00000000</i>
   </separator>
  </separator>
  <separator name="grids" >
   <i type="int" name="NGX">    96</i>
   <i type="int" name="NGY">    96</i>
   <i type="int" name="NGZ">    80</i>
   <i type="int" name="NGXF">   192</i>
   <i type="int" name="NGYF">   192</i>
   <i type="int" name="NGZF">   160</i>
   <i type="logical" name="ADDGRID"> F  </i>
  </separator>
  <separator name="ionic" >
   <i type="int" name="NSW">  6000</i>
   <i type="int" name="IBRION">     2</i>
   <i type="int" name="ISIF">     2</i>
   <i name="PSTRESS">      0.00000000</i>
   <i name="EDIFFG">      0.00010000</i>
   <i type="int" name="NFREE">     1</i>
   <i name="POTIM">      0.50000000</i>
   <i name="SMASS">     -3.00000000</i>
   <i name="SCALEE">      1.00000000</i>
  </separator>
  <separator name="ionic md" >
   <i name="TEBEG">      0.00010000</i>
   <i name="TEEND">      0.00010000</i>
   <i type="int" name="NBLOCK">     1</i>
   <i type="int" name="KBLOCK">  6000</i>
   <i type="int" name="NPACO">   256</i>
   <i name="APACO">     16.00000000</i>
  </separator>
  <separator name="symmetry" >
   <i type="int" name="ISYM">     0</i>
   <i name="SYMPREC">      0.00001000</i>
  </separator>
  <separator name="dos" >
   <i type="logical" name="LORBIT"> F  </i>
   <v name="RWIGS">     -1.00000000     -1.00000000</v>
   <i type="int" name="NEDOS">   301</i>
   <i name="EMIN">     10.00000000</i>
   <i name="EMAX">    -10.00000000</i>
   <i name="EFERMI">      0.00000000</i>
  </separator>
  <separator name="writing" >
   <i type="int" name="NWRITE">     2</i>
   <i type="logical" name="LWAVE"> T  </i>
   <i type="logical" name="LCHARG"> T  </i>
   <i type="logical" name="LPARD"> F  </i>
   <i type="logical" name="LVTOT"> F  </i>
   <i type="logical" name="LVHAR"> F  </i>
   <i type="logical" name="LELF"> F  </i>
   <i type="logical" name="LOPTICS"> F  </i>
   <v name="STM">      0.00000000      0.00000000      0.00000000      0.00000000      0.00000000      0.00000000      0.00000000</v>
  </separator>
  <separator name="performance" >
   <i type="int" name="NPAR">     4</i>
   <i type="int" name="NSIM">     4</i>
   <i type="int" name="NBLK">    -1</i>
   <i type="logical" name="LPLANE"> T  </i>
   <i type="logical" name="LSCALAPACK"> F  </i>
   <i type="logical" name="LSCAAWARE"> F  </i>
   <i type="logical" name="LSCALU"> F  </i>
   <i type="logical" name="LASYNC"> F  </i>
   <i type="logical" name="LORBITALREAL"> F  </i>
  </separator>
  <separator name="miscellaneous" >
   <i type="int" name="IDIOT">     3</i>
   <i type="logical" name="LMUSIC"> F  </i>
   <v name="POMASS">     12.01100000    106.42000000</v>
   <v name="DARWINR">      0.00000000      0.00000000</v>
   <v name="DARWINV">      1.00000000      1.00000000</v>
   <i type="logical" name="LCORR"> T  </i>
  </separator>
  <i type="logical" name="GGA_COMPAT"> T  </i>
  <i type="logical" name="LBERRY"> F  </i>
  <i type="int" name="ICORELEVEL">     0</i>
  <i type="logical" name="LDAU"> F  </i>
  <i type="int" name="I_CONSTRAINED_M">     0</i>
  <separator name="electronic exchange-correlation" >
   <i type="string" name="GGA">PE</i>
   <i type="int" name="VOSKOWN">     0</i>
   <i type="logical" name="LHFCALC"> F  </i>
   <i type="string" name="PRECFOCK"></i>
   <i type="logical" name="LSYMGRAD"> F  </i>
   <i type="logical" name="LHFONE"> F  </i>
   <i type="logical" name="LRHFCALC"> F  </i>
   <i type="logical" name="LTHOMAS"> F  </i>
   <i type="logical" name="LMODELHF"> F  </i>
   <i name="ENCUT4O">     -1.00000000</i>
   <i type="int" name="EXXOEP">     0</i>
   <i type="int" name="FOURORBIT">     0</i>
   <i name="AEXX">      0.00000000</i>
   <i name="HFALPHA">      0.00000000</i>
   <i name="MCALPHA">      0.00000000</i>
   <i name="ALDAX">      1.00000000</i>
   <i name="AGGAX">      1.00000000</i>
   <i name="ALDAC">      1.00000000</i>
   <i name="AGGAC">      1.00000000</i>
   <i type="int" name="NKREDX">     1</i>
   <i type="int" name="NKREDY">     1</i>
   <i type="int" name="NKREDZ">     1</i>
   <i type="logical" name="SHIFTRED"> F  </i>
   <i type="logical" name="ODDONLY"> F  </i>
   <i type="logical" name="EVENONLY"> F  </i>
   <i type="int" name="LMAXFOCK">     0</i>
   <i type="int" name="NMAXFOCKAE">     0</i>
   <i type="logical" name="LFOCKAEDFT"> F  </i>
   <i name="HFSCREEN">      0.00000000</i>
   <i name="HFSCREENC">      0.00000000</i>
   <i type="int" name="NBANDSGWLOW">     0</i>
  </separator>
  <separator name="vdW DFT" >
   <i type="logical" name="LUSE_VDW"> F  </i>
   <i name="Zab_VDW">     -0.84910000</i>
   <i name="PARAM1">      0.12340000</i>
   <i name="PARAM2">      1.00000000</i>
   <i name="PARAM3">      0.00000000</i>
  </separator>
  <separator name="model GW" >
   <i type="int" name="MODEL_GW">     0</i>
   <i name="MODEL_EPS0">     35.91580840</i>
   <i name="MODEL_ALPHA">      1.00000000</i>
  </separator>
  <separator name="linear response parameters" >
   <i type="logical" name="LEPSILON"> F  </i>
   <i type="logical" name="LRPA"> F  </i>
   <i type="logical" name="LNABLA"> F  </i>
   <i type="logical" name="LVEL"> F  </i>
   <i type="int" name="KINTER">     0</i>
   <i name="CSHIFT">      0.10000000</i>
   <i name="OMEGAMAX">     -1.00000000</i>
   <i name="DEG_THRESHOLD">      0.00200000</i>
  </separator>
  <separator name="orbital magnetization" >
   <i type="logical" name="NUCIND"> F  </i>
   <v name="MAGPOS">      0.00000000      0.00000000      0.00000000</v>
   <i type="logical" name="LNICSALL"> T  </i>
   <i type="logical" name="ORBITALMAG"> F  </i>
   <i type="logical" name="LMAGBLOCH"> F  </i>
   <i type="logical" name="LCHIMAG"> F  </i>
   <i type="logical" name="LGAUGE"> T  </i>
   <i type="int" name="MAGATOM">     0</i>
   <v name="MAGDIPOL">      0.00000000      0.00000000      0.00000000</v>
   <v name="AVECCONST">      0.00000000      0.00000000      0.00000000</v>
  </separator>
  <separator name="response functions" >
   <i type="logical" name="LADDER"> F  </i>
   <i type="logical" name="LFXC"> F  </i>
   <i type="logical" name="LHARTREE"> T  </i>
   <i type="int" name="IBSE">     0</i>
   <i type="logical" name="LTCTE"> F  </i>
   <i type="logical" name="LTETE"> F  </i>
   <i type="logical" name="LTRIPLET"> F  </i>
   <i type="logical" name="LFXCEPS"> F  </i>
   <i type="logical" name="LFXHEG"> F  </i>
   <i type="logical" name="L2ORDER"> F  </i>
   <i type="logical" name="LUSEW"> F  </i>
   <i name="ENCUTGW">     -2.00000000</i>
   <i name="ENCUTGWSOFT">     -2.00000000</i>
   <i name="ENCUTLF">     -1.00000000</i>
   <i type="int" name="LMAXMP2">    -1</i>
   <i name="SCISSOR">      0.00000000</i>
   <i type="int" name="NOMEGA">     0</i>
   <i type="int" name="NOMEGAR">     0</i>
   <i type="int" name="NBANDSGW">    -1</i>
   <i type="int" name="NBANDSO">    -1</i>
   <i type="int" name="NBANDSV">    -1</i>
   <i type="int" name="NELM">   100</i>
   <i type="int" name="DIM">     3</i>
   <i type="int" name="ANTIRES">     0</i>
   <i name="OMEGAMAX">    -30.00000000</i>
   <i name="OMEGAMIN">    -30.00000000</i>
   <i name="OMEGATL">   -200.00000000</i>
   <i type="int" name="OMEGAGRID">     0</i>
   <i name="CSHIFT">     -0.10000000</i>
   <i type="logical" name="SELFENERGY"> F  </i>
   <i type="logical" name="LSPECTRAL"> F  </i>
   <i type="logical" name="ODDONLYGW"> F  </i>
   <i type="logical" name="EVENONLYGW"> F  </i>
   <i type="int" name="NKREDLFX">     1</i>
   <i type="int" name="NKREDLFY">     1</i>
   <i type="int" name="NKREDLFZ">     1</i>
   <i type="int" name="MAXMEM">  1800</i>
   <i type="int" name="TELESCOPE">     0</i>
   <i type="int" name="TAUPAR">     1</i>
  </separator>
  <separator name="External order field" >
   <i name="OFIELD_KAPPA">      0.00000000</i>
   <v name="OFIELD_K">      0.00000000      0.00000000      0.00000000</v>
   <i name="OFIELD_Q6_NEAR">      0.00000000</i>
   <i name="OFIELD_Q6_FAR">      0.00000000</i>
   <i name="OFIELD_A">      0.00000000</i>
  </separator>
 </parameters>
 <atominfo>
  <atoms>      80 </atoms>
  <types>       2 </types>
  <array name="atoms" >
   <dimension dim="1">ion</dimension>
   <field type="string">element</field>
   <field type="int">atomtype</field>
   <set>
    <rc><c>C </c><c>   1</c></rc>
    <rc><c>C </c><c>   1</c></rc>
    <rc><c>C </c><c>   1</c></rc>
    <rc><c>C </c><c>   1</c></rc>
    <rc><c>C </c><c>   1</c></rc>
    <rc><c>C </c><c>   1</c></rc>
    <rc><c>C </c><c>   1</c></rc>
    <rc><c>C </c><c>   1</c></rc>
    <rc><c>C </c><c>   1</c></rc>
    <rc><c>C </c><c>   1</c></rc>
    <rc><c>C </c><c>   1</c></rc>
    <rc><c>C </c><c>   1</c></rc>
    <rc><c>C </c><c>   1</c></rc>
    <rc><c>C </c><c>   1</c></rc>
    <rc><c>C </c><c>   1</c></rc>
    <rc><c>C </c><c>   1</c></rc>
    <rc><c>C </c><c>   1</c></rc>
    <rc><c>C </c><c>   1</c></rc>
    <rc><c>C </c><c>   1</c></rc>
    <rc><c>C </c><c>   1</c></rc>
    <rc><c>C </c><c>   1</c></rc>
    <rc><c>C </c><c>   1</c></rc>
    <rc><c>C </c><c>   1</c></rc>
    <rc><c>C </c><c>   1</c></rc>
    <rc><c>C </c><c>   1</c></rc>
    <rc><c>C </c><c>   1</c></rc>
    <rc><c>C </c><c>   1</c></rc>
    <rc><c>C </c><c>   1</c></rc>
    <rc><c>C </c><c>   1</c></rc>
    <rc><c>C </c><c>   1</c></rc>
    <rc><c>C </c><c>   1</c></rc>
    <rc><c>C </c><c>   1</c></rc>
    <rc><c>C </c><c>   1</c></rc>
    <rc><c>C </c><c>   1</c></rc>
    <rc><c>C </c><c>   1</c></rc>
    <rc><c>C </c><c>   1</c></rc>
    <rc><c>C </c><c>   1</c></rc>
    <rc><c>C </c><c>   1</c></rc>
    <rc><c>C </c><c>   1</c></rc>
    <rc><c>C </c><c>   1</c></rc>
    <rc><c>C </c><c>   1</c></rc>
    <rc><c>C </c><c>   1</c></rc>
    <rc><c>C </c><c>   1</c></rc>
    <rc><c>C </c><c>   1</c></rc>
    <rc><c>C </c><c>   1</c></rc>
    <rc><c>C </c><c>   1</c></rc>
    <rc><c>C </c><c>   1</c></rc>
    <rc><c>C </c><c>   1</c></rc>
    <rc><c>C </c><c>   1</c></rc>
    <rc><c>C </c><c>   1</c></rc>
    <rc><c>C </c><c>   1</c></rc>
    <rc><c>C </c><c>   1</c></rc>
    <rc><c>C </c><c>   1</c></rc>
    <rc><c>C </c><c>   1</c></rc>
    <rc><c>C </c><c>   1</c></rc>
    <rc><c>C </c><c>   1</c></rc>
    <rc><c>C </c><c>   1</c></rc>
    <rc><c>C </c><c>   1</c></rc>
    <rc><c>C </c><c>   1</c></rc>
    <rc><c>C </c><c>   1</c></rc>
    <rc><c>C </c><c>   1</c></rc>
    <rc><c>C </c><c>   1</c></rc>
    <rc><c>C </c><c>   1</c></rc>
    <rc><c>C </c><c>   1</c></rc>
    <rc><c>C </c><c>   1</c></rc>
    <rc><c>C </c><c>   1</c></rc>
    <rc><c>C </c><c>   1</c></rc>
    <rc><c>C </c><c>   1</c></rc>
    <rc><c>C </c><c>   1</c></rc>
    <rc><c>C </c><c>   1</c></rc>
    <rc><c>C </c><c>   1</c></rc>
    <rc><c>C </c><c>   1</c></rc>
    <rc><c>Pd</c><c>   2</c></rc>
    <rc><c>Pd</c><c>   2</c></rc>
    <rc><c>Pd</c><c>   2</c></rc>
    <rc><c>Pd</c><c>   2</c></rc>
    <rc><c>Pd</c><c>   2</c></rc>
    <rc><c>Pd</c><c>   2</c></rc>
    <rc><c>Pd</c><c>   2</c></rc>
    <rc><c>Pd</c><c>   2</c></rc>
   </set>
  </array>
  <array name="atomtypes" >
   <dimension dim="1">type</dimension>
   <field type="int">atomspertype</field>
   <field type="string">element</field>
   <field>mass</field>
   <field>valence</field>
   <field type="string">pseudopotential</field>
   <set>
    <rc><c>  72</c><c>C </c><c>     12.01100000</c><c>      4.00000000</c><c> PAW_PBE C 08Apr2002                    </c></rc>
    <rc><c>   8</c><c>Pd</c><c>    106.42000000</c><c>     10.00000000</c><c> PAW_PBE Pd 05Jan2001                   </c></rc>
   </set>
  </array>
 </atominfo>
 <structure name="initialpos" >
  <crystal>
   <varray name="basis" >
    <v>      19.20000076       0.00000000       0.00000000 </v>
    <v>      -9.60000038      16.62768841       0.00000000 </v>
    <v>       0.00000000       0.00000000      15.00000000 </v>
   </varray>
   <i name="volume">   4788.77445334 </i>
   <varray name="rec_basis" >
    <v>       0.05208333       0.03007033       0.00000000 </v>
    <v>       0.00000000       0.06014065       0.00000000 </v>
    <v>       0.00000000       0.00000000       0.06666667 </v>
   </varray>
  </crystal>
  <varray name="positions" >
   <v>       0.16054000       0.26146001       0.20649999 </v>
   <v>       0.01086000       0.26334000       0.19893999 </v>
   <v>       0.08523000       0.18656000       0.20074999 </v>
   <v>       0.08688000       0.33868000       0.20291001 </v>
   <v>       0.16158000       0.33776000       0.20851000 </v>
   <v>       0.01005000       0.18729000       0.19802999 </v>
   <v>       0.23461001       0.26036000       0.21719000 </v>
   <v>       0.93729001       0.26409000       0.19720000 </v>
   <v>       0.08520000       0.11221000       0.19970000 </v>
   <v>       0.08743000       0.41325000       0.20280001 </v>
   <v>       0.23650000       0.41185000       0.22171000 </v>
   <v>       0.93592000       0.11350000       0.19552000 </v>
   <v>       0.29563001       0.25071999       0.20352000 </v>
   <v>       0.36870000       0.25606999       0.19652000 </v>
   <v>       0.08616000       0.04813000       0.19920000 </v>
   <v>       0.08728000       0.97764999       0.19871000 </v>
   <v>       0.30260000       0.97814000       0.19520999 </v>
   <v>       0.37353000       0.04913000       0.19448000 </v>
   <v>       0.66380000       0.26499000       0.19855000 </v>
   <v>       0.51304001       0.26282999       0.20305000 </v>
   <v>       0.58851999       0.18810999       0.19660001 </v>
   <v>       0.58767003       0.33930001       0.21334000 </v>
   <v>       0.66358000       0.34068999       0.20474000 </v>
   <v>       0.51257002       0.18751000       0.19679999 </v>
   <v>       0.73798001       0.26552001       0.19697000 </v>
   <v>       0.44100002       0.26802999       0.20363000 </v>
   <v>       0.58903003       0.11412000       0.19505000 </v>
   <v>       0.57621002       0.40836000       0.23838000 </v>
   <v>       0.73787999       0.41479000       0.20563000 </v>
   <v>       0.43827999       0.11349000       0.19439000 </v>
   <v>       0.80241001       0.26510999       0.19663000 </v>
   <v>       0.87291998       0.26460999       0.19672000 </v>
   <v>       0.58819002       0.04888000       0.19473000 </v>
   <v>       0.58750999       0.97750997       0.19478001 </v>
   <v>       0.80103999       0.97759002       0.19404000 </v>
   <v>       0.87154001       0.04866000       0.19449000 </v>
   <v>       0.16402000       0.76371998       0.19900000 </v>
   <v>       0.01317000       0.76402003       0.19948000 </v>
   <v>       0.08831000       0.68809003       0.20020001 </v>
   <v>       0.08852000       0.83939999       0.19858000 </v>
   <v>       0.16406000       0.83920002       0.19800000 </v>
   <v>       0.01304000       0.68834001       0.20050000 </v>
   <v>       0.23797000       0.76322001       0.19909000 </v>
   <v>       0.93888998       0.76389003       0.19943000 </v>
   <v>       0.08815000       0.61374003       0.20097999 </v>
   <v>       0.08834000       0.91363001       0.19845000 </v>
   <v>       0.23820999       0.91346997       0.19647001 </v>
   <v>       0.93860000       0.61430001       0.20201001 </v>
   <v>       0.30201000       0.76217997       0.19949000 </v>
   <v>       0.37255001       0.76133001       0.20000000 </v>
   <v>       0.08787000       0.54904002       0.20158000 </v>
   <v>       0.08765000       0.47792000       0.20227000 </v>
   <v>       0.29780000       0.48205998       0.21082000 </v>
   <v>       0.37210000       0.54843003       0.21904001 </v>
   <v>       0.66422999       0.76296002       0.19950999 </v>
   <v>       0.51163000       0.76195002       0.20056000 </v>
   <v>       0.58961999       0.68813002       0.20769000 </v>
   <v>       0.58723003       0.83828002       0.19662000 </v>
   <v>       0.66307002       0.83840001       0.19602001 </v>
   <v>       0.51388001       0.68810999       0.20781000 </v>
   <v>       0.73878998       0.76374000       0.19922000 </v>
   <v>       0.43700999       0.76104999       0.20047000 </v>
   <v>       0.58191001       0.60961002       0.22341999 </v>
   <v>       0.58702999       0.91246003       0.19514000 </v>
   <v>       0.73673999       0.91263998       0.19431999 </v>
   <v>       0.44398999       0.61009002       0.22195000 </v>
   <v>       0.80337000       0.76380003       0.19919001 </v>
   <v>       0.87437999       0.76392001       0.19916999 </v>
   <v>       0.60768002       0.55770999       0.21957000 </v>
   <v>       0.61921000       0.49454001       0.23293001 </v>
   <v>       0.80276001       0.47911999       0.20491999 </v>
   <v>       0.87395000       0.54986000       0.20347001 </v>
   <v>       0.30938000       0.30834001       0.33107999 </v>
   <v>       0.43634999       0.38352999       0.43695000 </v>
   <v>       0.57573003       0.39326999       0.37412000 </v>
   <v>       0.42286000       0.51365000       0.47457001 </v>
   <v>       0.31924999       0.45142001       0.34200999 </v>
   <v>       0.45675001       0.37505001       0.25784001 </v>
   <v>       0.56143999       0.52679998       0.42552999 </v>
   <v>       0.47499999       0.53302997       0.28939000 </v>
  </varray>
 </structure>
 <calculation>
  <scstep>
   <time name="diag">    2.40    2.40</time>
   <time name="diis">    3.93    3.94</time>
   <time name="orth">    0.34    0.34</time>
   <time name="total">    7.22    7.27</time>
   <energy>
    <i name="alphaZ">    196.40581935 </i>
    <i name="ewald">  26177.80216055 </i>
    <i name="hartreedc"> -40331.79716818 </i>
    <i name="XCdc">    731.17258443 </i>
    <i name="pawpsdc">   8132.62169511 </i>
    <i name="pawaedc">  -7717.08631923 </i>
    <i name="eentropy">     -0.37399007 </i>
    <i name="bandstr">    368.52619700 </i>
    <i name="atom">  17071.11285939 </i>
    <i name="e_fr_energy">   4628.38383835 </i>
    <i name="e_wo_entrp">   4628.75782841 </i>
    <i name="e_0_energy">   4628.57083338 </i>
   </energy>
  </scstep>
  <scstep>
   <time name="diag">    2.58    2.60</time>
   <time name="diis">    3.86    3.91</time>
   <time name="orth">    0.33    0.33</time>
   <time name="total">    6.76    6.86</time>
   <energy>
    <i name="e_fr_energy">   1928.20346561 </i>
    <i name="e_wo_entrp">   1929.08074219 </i>
    <i name="e_0_energy">   1928.64210390 </i>
   </energy>
  </scstep>
  <scstep>
   <time name="diag">    3.00    3.01</time>
   <time name="diis">    3.74    3.75</time>
   <time name="orth">    0.33    0.33</time>
   <time name="total">    7.07    7.11</time>
   <energy>
    <i name="e_fr_energy">    920.81283630 </i>
    <i name="e_wo_entrp">    921.99751762 </i>
    <i name="e_0_energy">    921.40517696 </i>
   </energy>
  </scstep>
  <scstep>
   <time name="diag">    2.59    2.93</time>
   <time name="diis">    3.78    3.84</time>
   <time name="orth">    0.33    0.33</time>
   <time name="total">    6.70    7.11</time>
   <energy>
    <i name="e_fr_energy">    -64.71605299 </i>
    <i name="e_wo_entrp">    -64.27263444 </i>
    <i name="e_0_energy">    -64.49434371 </i>
   </energy>
  </scstep>
  <scstep>
   <time name="diag">    2.71    2.72</time>
   <time name="diis">    3.89    3.90</time>
   <time name="orth">    0.33    0.33</time>
   <time name="total">    6.92    6.98</time>
   <energy>
    <i name="e_fr_energy">   -472.18975234 </i>
    <i name="e_wo_entrp">   -471.82797945 </i>
    <i name="e_0_energy">   -472.00886590 </i>
   </energy>
  </scstep>
  <scstep>
   <time name="diag">    2.80    2.83</time>
   <time name="diis">    4.38    4.39</time>
   <time name="orth">    0.33    0.33</time>
   <time name="total">    7.52    7.58</time>
   <energy>
    <i name="e_fr_energy">   -614.37597532 </i>
    <i name="e_wo_entrp">   -613.98393167 </i>
    <i name="e_0_energy">   -614.17995349 </i>
   </energy>
  </scstep>
  <scstep>
   <time name="diag">    3.16    3.17</time>
   <time name="diis">    3.67    3.96</time>
   <time name="orth">    0.32    0.33</time>
   <time name="total">    7.15    7.47</time>
   <energy>
    <i name="e_fr_energy">   -653.48707785 </i>
    <i name="e_wo_entrp">   -652.90785362 </i>
    <i name="e_0_energy">   -653.19746574 </i>
   </energy>
  </scstep>
  <scstep>
   <time name="diag">    2.41    2.42</time>
   <time name="diis">    3.75    3.79</time>
   <time name="orth">    0.33    0.33</time>
   <time name="total">    6.49    6.81</time>
   <energy>
    <i name="e_fr_energy">   -669.26624593 </i>
    <i name="e_wo_entrp">   -668.54707419 </i>
    <i name="e_0_energy">   -668.90666006 </i>
   </energy>
  </scstep>
  <scstep>
   <time name="diag">    3.79    3.84</time>
   <time name="diis">    9.20    9.23</time>
   <time name="orth">    0.36    0.36</time>
   <time name="total">   13.36   13.46</time>
   <energy>
    <i name="e_fr_energy">   -677.70781546 </i>
    <i name="e_wo_entrp">   -676.87662385 </i>
    <i name="e_0_energy">   -677.29221965 </i>
   </energy>
  </scstep>
  <scstep>
   <time name="diag">    2.58    2.64</time>
   <time name="diis">    9.84   10.38</time>
   <time name="orth">    0.33    0.33</time>
   <time name="total">   12.76   13.37</time>
   <energy>
    <i name="e_fr_energy">   -679.23188950 </i>
    <i name="e_wo_entrp">   -678.38146969 </i>
    <i name="e_0_energy">   -678.80667960 </i>
   </energy>
  </scstep>
  <scstep>
   <time name="diag">    2.92    2.93</time>
   <time name="diis">    8.84    8.87</time>
   <time name="orth">    0.75    0.75</time>
   <time name="total">   12.52   12.59</time>
   <energy>
    <i name="e_fr_energy">   -679.42656426 </i>
    <i name="e_wo_entrp">   -678.53782420 </i>
    <i name="e_0_energy">   -678.98219423 </i>
   </energy>
  </scstep>
  <scstep>
   <time name="diag">    3.21    3.22</time>
   <time name="diis">    9.21    9.23</time>
   <time name="orth">    0.33    0.33</time>
   <time name="total">   13.47   13.52</time>
   <energy>
    <i name="e_fr_energy">   -679.45940114 </i>
    <i name="e_wo_entrp">   -678.56110194 </i>
    <i name="e_0_energy">   -679.01025154 </i>
   </energy>
  </scstep>
  <scstep>
   <time name="diag">    2.63    2.81</time>
   <time name="diis">    6.41    6.43</time>
   <time name="orth">    0.33    0.33</time>
   <time name="total">   10.66   10.88</time>
   <energy>
    <i name="e_fr_energy">   -541.40815947 </i>
    <i name="e_wo_entrp">   -540.84339512 </i>
    <i name="e_0_energy">   -541.12577730 </i>
   </energy>
  </scstep>
  <scstep>
   <time name="diag">    3.51    3.59</time>
   <time name="diis">    6.55    6.56</time>
   <time name="orth">    0.39    0.47</time>
   <time name="total">   12.28   12.51</time>
   <energy>
    <i name="e_fr_energy">   -507.26378971 </i>
    <i name="e_wo_entrp">   -506.98092621 </i>
    <i name="e_0_energy">   -507.12235796 </i>
   </energy>
  </scstep>
  <scstep>
   <time name="diag">    2.54    2.55</time>
   <time name="diis">    7.61    7.63</time>
   <time name="orth">    0.33    0.33</time>
   <time name="total">   12.00   12.05</time>
   <energy>
    <i name="e_fr_energy">   -493.80601082 </i>
    <i name="e_wo_entrp">   -493.28682907 </i>
    <i name="e_0_energy">   -493.54641994 </i>
   </energy>
  </scstep>
  <scstep>
   <time name="diag">    2.52    2.92</time>
   <time name="diis">    7.54    7.60</time>
   <time name="orth">    0.32    0.32</time>
   <time name="total">   12.51   13.03</time>
   <energy>
    <i name="e_fr_energy">   -535.06567560 </i>
    <i name="e_wo_entrp">   -534.75571436 </i>
    <i name="e_0_energy">   -534.91069498 </i>
   </energy>
  </scstep>
  <scstep>
   <time name="diag">    2.63    2.63</time>
   <time name="diis">    7.49    7.53</time>
   <time name="orth">    0.34    0.34</time>
   <time name="total">   12.46   12.59</time>
   <energy>
    <i name="e_fr_energy">   -551.31425637 </i>
    <i name="e_wo_entrp">   -550.97552003 </i>
    <i name="e_0_energy">   -551.14488820 </i>
   </energy>
  </scstep>
  <scstep>
   <time name="diag">    2.92    2.97</time>
   <time name="diis">    6.49    6.51</time>
   <time name="orth">    0.32    0.32</time>
   <time name="total">   11.26   11.41</time>
   <energy>
    <i name="e_fr_energy">   -579.64100404 </i>
    <i name="e_wo_entrp">   -579.31632463 </i>
    <i name="e_0_energy">   -579.47866433 </i>
   </energy>
  </scstep>
  <scstep>
   <time name="diag">    3.30    3.31</time>
   <time name="diis">    7.91    8.22</time>
   <time name="orth">    0.36    0.36</time>
   <time name="total">   13.78   14.11</time>
   <energy>
    <i name="e_fr_energy">   -604.43672037 </i>
    <i name="e_wo_entrp">   -604.14871483 </i>
    <i name="e_0_energy">   -604.29271760 </i>
   </energy>
  </scstep>
  <scstep>
   <time name="diag">    2.52    2.53</time>
   <time name="diis">    7.32    7.34</time>
   <time name="orth">    0.32    0.33</time>
   <time name="total">   11.49   11.61</time>
   <energy>
    <i name="e_fr_energy">   -620.36165419 </i>
    <i name="e_wo_entrp">   -620.12858386 </i>
    <i name="e_0_energy">   -620.24511903 </i>
   </energy>
  </scstep>
  <scstep>
   <time name="diag">    3.08    3.09</time>
   <time name="diis">    7.45    7.55</time>
   <time name="orth">    0.33    0.33</time>
   <time name="total">   13.28   13.41</time>
   <energy>
    <i name="e_fr_energy">   -627.87562317 </i>
    <i name="e_wo_entrp">   -627.63623885 </i>
    <i name="e_0_energy">   -627.75593101 </i>
   </energy>
  </scstep>
  <scstep>
   <time name="diag">    2.53    2.53</time>
   <time name="diis">    6.78    6.91</time>
   <time name="orth">    0.79    0.79</time>
   <time name="total">   12.10   12.38</time>
   <energy>
    <i name="e_fr_energy">   -633.66012592 </i>
    <i name="e_wo_entrp">   -633.32209127 </i>
    <i name="e_0_energy">   -633.49110859 </i>
   </energy>
  </scstep>
  <scstep>
   <time name="diag">    3.17    3.18</time>
   <time name="diis">    6.92    6.94</time>
   <time name="orth">    0.36    0.36</time>
   <time name="total">   12.56   12.62</time>
   <energy>
    <i name="e_fr_energy">   -636.04910750 </i>
    <i name="e_wo_entrp">   -635.73994542 </i>
    <i name="e_0_energy">   -635.89452646 </i>
   </energy>
  </scstep>
  <scstep>
   <time name="diag">    2.92    2.92</time>
   <time name="diis">    7.04    7.07</time>
   <time name="orth">    0.83    0.83</time>
   <time name="total">   12.77   12.83</time>
   <energy>
    <i name="e_fr_energy">   -637.47960869 </i>
    <i name="e_wo_entrp">   -637.17481678 </i>
    <i name="e_0_energy">   -637.32721273 </i>
   </energy>
  </scstep>
  <scstep>
   <time name="diag">    2.97    3.04</time>
   <time name="diis">    8.38    8.40</time>
   <time name="orth">    0.33    0.33</time>
   <time name="total">   13.21   13.32</time>
   <energy>
    <i name="e_fr_energy">   -638.01157134 </i>
    <i name="e_wo_entrp">   -637.70988996 </i>
    <i name="e_0_energy">   -637.86073065 </i>
   </energy>
  </scstep>
  <scstep>
   <time name="diag">    2.76    2.94</time>
   <time name="diis">    6.94    6.99</time>
   <time name="orth">    0.33    0.33</time>
   <time name="total">   11.38   11.68</time>
   <energy>
    <i name="e_fr_energy">   -638.43183698 </i>
    <i name="e_wo_entrp">   -638.12176190 </i>
    <i name="e_0_energy">   -638.27679944 </i>
   </energy>
  </scstep>
  <scstep>
   <time name="diag">    2.98    2.99</time>
   <time name="diis">    6.85    6.89</time>
   <time name="orth">    1.40    1.40</time>
   <time name="total">   13.22   13.86</time>
   <energy>
    <i name="e_fr_energy">   -638.73537381 </i>
    <i name="e_wo_entrp">   -638.43671007 </i>
    <i name="e_0_energy">   -638.58604194 </i>
   </energy>
  </scstep>
  <scstep>
   <time name="diag">    2.43    2.44</time>
   <time name="diis">    7.40    7.48</time>
   <time name="orth">    0.33    0.33</time>
   <time name="total">   12.26   12.44</time>
   <energy>
    <i name="e_fr_energy">   -638.92459054 </i>
    <i name="e_wo_entrp">   -638.62238845 </i>
    <i name="e_0_energy">   -638.77348949 </i>
   </energy>
  </scstep>
  <scstep>
   <time name="diag">    3.29    3.30</time>
   <time name="diis">    7.91    7.98</time>
   <time name="orth">    0.33    0.33</time>
   <time name="total">   13.04   13.15</time>
   <energy>
    <i name="e_fr_energy">   -639.01054689 </i>
    <i name="e_wo_entrp">   -638.70719600 </i>
    <i name="e_0_energy">   -638.85887144 </i>
   </energy>
  </scstep>
  <scstep>
   <time name="diag">    2.48    2.49</time>
   <time name="diis">    7.46    7.52</time>
   <time name="orth">    0.33    0.33</time>
   <time name="total">   13.99   14.11</time>
   <energy>
    <i name="e_fr_energy">   -639.05746516 </i>
    <i name="e_wo_entrp">   -638.75322823 </i>
    <i name="e_0_energy">   -638.90534669 </i>
   </energy>
  </scstep>
  <scstep>
   <time name="diag">    2.84    2.86</time>
   <time name="diis">    6.72    6.80</time>
   <time name="orth">    0.40    0.41</time>
   <time name="total">   12.51   12.65</time>
   <energy>
    <i name="e_fr_energy">   -639.07327054 </i>
    <i name="e_wo_entrp">   -638.76927312 </i>
    <i name="e_0_energy">   -638.92127183 </i>
   </energy>
  </scstep>
  <scstep>
   <time name="diag">    2.69    2.70</time>
   <time name="diis">    5.95    5.96</time>
   <time name="orth">    0.33    0.33</time>
   <time name="total">   10.37   10.46</time>
   <energy>
    <i name="e_fr_energy">   -639.07673396 </i>
    <i name="e_wo_entrp">   -638.77261630 </i>
    <i name="e_0_energy">   -638.92467513 </i>
   </energy>
  </scstep>
  <scstep>
   <time name="diag">    2.64    2.65</time>
   <time name="diis">    5.51    5.52</time>
   <time name="orth">    0.32    0.32</time>
   <time name="total">   10.24   10.27</time>
   <energy>
    <i name="e_fr_energy">   -639.07869787 </i>
    <i name="e_wo_entrp">   -638.77509138 </i>
    <i name="e_0_energy">   -638.92689463 </i>
   </energy>
  </scstep>
  <scstep>
   <time name="diag">    2.46    2.47</time>
   <time name="diis">    7.43    7.50</time>
   <time name="orth">    0.34    0.34</time>
   <time name="total">   12.01   12.66</time>
   <energy>
    <i name="e_fr_energy">   -639.08017809 </i>
    <i name="e_wo_entrp">   -638.77637842 </i>
    <i name="e_0_energy">   -638.92827826 </i>
   </energy>
  </scstep>
  <scstep>
   <time name="diag">    2.74    2.75</time>
   <time name="diis">    5.97    5.98</time>
   <time name="orth">    0.40    1.27</time>
   <time name="total">   10.44   11.34</time>
   <energy>
    <i name="e_fr_energy">   -639.08118554 </i>
    <i name="e_wo_entrp">   -638.77727402 </i>
    <i name="e_0_energy">   -638.92922978 </i>
   </energy>
  </scstep>
  <scstep>
   <time name="diag">    2.58    2.59</time>
   <time name="diis">    5.12    5.13</time>
   <time name="orth">    0.33    0.33</time>
   <time name="total">    9.89    9.93</time>
   <energy>
    <i name="e_fr_energy">   -639.08172687 </i>
    <i name="e_wo_entrp">   -638.77789342 </i>
    <i name="e_0_energy">   -638.92981015 </i>
   </energy>
  </scstep>
  <scstep>
   <time name="diag">    2.46    2.46</time>
   <time name="diis">    5.10    5.11</time>
   <time name="orth">    0.32    0.33</time>
   <time name="total">    9.75   10.50</time>
   <energy>
    <i name="e_fr_energy">   -639.08194945 </i>
    <i name="e_wo_entrp">   -638.77807642 </i>
    <i name="e_0_energy">   -638.93001293 </i>
   </energy>
  </scstep>
  <scstep>
   <time name="diag">    2.62    2.65</time>
   <time name="diis">    4.71    4.72</time>
   <time name="orth">    0.33    0.33</time>
   <time name="total">    8.97    9.03</time>
   <energy>
    <i name="e_fr_energy">   -639.08203412 </i>
    <i name="e_wo_entrp">   -638.77820783 </i>
    <i name="e_0_energy">   -638.93012098 </i>
   </energy>
  </scstep>
  <scstep>
   <time name="diag">    2.34    2.34</time>
   <time name="diis">    4.51    4.54</time>
   <time name="orth">    0.36    0.36</time>
   <time name="total">    8.49    8.54</time>
   <energy>
    <i name="e_fr_energy">   -639.08205237 </i>
    <i name="e_wo_entrp">   -638.77814993 </i>
    <i name="e_0_energy">   -638.93010115 </i>
   </energy>
  </scstep>
  <scstep>
   <time name="diag">    3.09    3.10</time>
   <time name="diis">    4.02    4.04</time>
   <time name="orth">    0.32    1.36</time>
   <time name="total">    8.05    9.15</time>
   <energy>
    <i name="alphaZ">    196.40581935 </i>
    <i name="ewald">  26177.80216055 </i>
    <i name="hartreedc"> -41381.77170209 </i>
    <i name="XCdc">    763.40296394 </i>
    <i name="pawpsdc">  10459.42996480 </i>
    <i name="pawaedc"> -10059.19414685 </i>
    <i name="eentropy">     -0.30386329 </i>
    <i name="bandstr">  -3865.96611081 </i>
    <i name="atom">  17071.11285939 </i>
    <i name="e_fr_energy">   -639.08205502 </i>
    <i name="e_wo_entrp">   -638.77819172 </i>
    <i name="e_0_energy">   -638.93012337 </i>
   </energy>
  </scstep>
  <dipole>
   <v name="dipole">      0.00000000       0.00000000      -0.62435548 </v>
   <i name="Tr[quadrupol]"> -27588.19362585 </i>
   <i name="Echarged">      0.00000000 </i>
   <i name="Edipol_quadrupol">      0.00000000 </i>
   <i name="Eion">      0.00000000 </i>
  </dipole>
  <structure>
   <crystal>
    <varray name="basis" >
     <v>      19.20000076       0.00000000       0.00000000 </v>
     <v>      -9.60000038      16.62768841       0.00000000 </v>
     <v>       0.00000000       0.00000000      15.00000000 </v>
    </varray>
    <i name="volume">   4788.77445334 </i>
    <varray name="rec_basis" >
     <v>       0.05208333       0.03007033       0.00000000 </v>
     <v>       0.00000000       0.06014065       0.00000000 </v>
     <v>       0.00000000       0.00000000       0.06666667 </v>
    </varray>
   </crystal>
   <varray name="positions" >
    <v>       0.16054000       0.26146001       0.20649999 </v>
    <v>       0.01086000       0.26334000       0.19893999 </v>
    <v>       0.08523000       0.18656000       0.20074999 </v>
    <v>       0.08688000       0.33868000       0.20291001 </v>
    <v>       0.16158000       0.33776000       0.20851000 </v>
    <v>       0.01005000       0.18729000       0.19802999 </v>
    <v>       0.23461001       0.26036000       0.21719000 </v>
    <v>       0.93729001       0.26409000       0.19720000 </v>
    <v>       0.08520000       0.11221000       0.19970000 </v>
    <v>       0.08743000       0.41325000       0.20280001 </v>
    <v>       0.23650000       0.41185000       0.22171000 </v>
    <v>       0.93592000       0.11350000       0.19552000 </v>
    <v>       0.29563001       0.25071999       0.20352000 </v>
    <v>       0.36870000       0.25606999       0.19652000 </v>
    <v>       0.08616000       0.04813000       0.19920000 </v>
    <v>       0.08728000       0.97764999       0.19871000 </v>
    <v>       0.30260000       0.97814000       0.19520999 </v>
    <v>       0.37353000       0.04913000       0.19448000 </v>
    <v>       0.66380000       0.26499000       0.19855000 </v>
    <v>       0.51304001       0.26282999       0.20305000 </v>
    <v>       0.58851999       0.18810999       0.19660001 </v>
    <v>       0.58767003       0.33930001       0.21334000 </v>
    <v>       0.66358000       0.34068999       0.20474000 </v>
    <v>       0.51257002       0.18751000       0.19679999 </v>
    <v>       0.73798001       0.26552001       0.19697000 </v>
    <v>       0.44100002       0.26802999       0.20363000 </v>
    <v>       0.58903003       0.11412000       0.19505000 </v>
    <v>       0.57621002       0.40836000       0.23838000 </v>
    <v>       0.73787999       0.41479000       0.20563000 </v>
    <v>       0.43827999       0.11349000       0.19439000 </v>
    <v>       0.80241001       0.26510999       0.19663000 </v>
    <v>       0.87291998       0.26460999       0.19672000 </v>
    <v>       0.58819002       0.04888000       0.19473000 </v>
    <v>       0.58750999       0.97750997       0.19478001 </v>
    <v>       0.80103999       0.97759002       0.19404000 </v>
    <v>       0.87154001       0.04866000       0.19449000 </v>
    <v>       0.16402000       0.76371998       0.19900000 </v>
    <v>       0.01317000       0.76402003       0.19948000 </v>
    <v>       0.08831000       0.68809003       0.20020001 </v>
    <v>       0.08852000       0.83939999       0.19858000 </v>
    <v>       0.16406000       0.83920002       0.19800000 </v>
    <v>       0.01304000       0.68834001       0.20050000 </v>
    <v>       0.23797000       0.76322001       0.19909000 </v>
    <v>       0.93888998       0.76389003       0.19943000 </v>
    <v>       0.08815000       0.61374003       0.20097999 </v>
    <v>       0.08834000       0.91363001       0.19845000 </v>
    <v>       0.23820999       0.91346997       0.19647001 </v>
    <v>       0.93860000       0.61430001       0.20201001 </v>
    <v>       0.30201000       0.76217997       0.19949000 </v>
    <v>       0.37255001       0.76133001       0.20000000 </v>
    <v>       0.08787000       0.54904002       0.20158000 </v>
    <v>       0.08765000       0.47792000       0.20227000 </v>
    <v>       0.29780000       0.48205998       0.21082000 </v>
    <v>       0.37210000       0.54843003       0.21904001 </v>
    <v>       0.66422999       0.76296002       0.19950999 </v>
    <v>       0.51163000       0.76195002       0.20056000 </v>
    <v>       0.58961999       0.68813002       0.20769000 </v>
    <v>       0.58723003       0.83828002       0.19662000 </v>
    <v>       0.66307002       0.83840001       0.19602001 </v>
    <v>       0.51388001       0.68810999       0.20781000 </v>
    <v>       0.73878998       0.76374000       0.19922000 </v>
    <v>       0.43700999       0.76104999       0.20047000 </v>
    <v>       0.58191001       0.60961002       0.22341999 </v>
    <v>       0.58702999       0.91246003       0.19514000 </v>
    <v>       0.73673999       0.91263998       0.19431999 </v>
    <v>       0.44398999       0.61009002       0.22195000 </v>
    <v>       0.80337000       0.76380003       0.19919001 </v>
    <v>       0.87437999       0.76392001       0.19916999 </v>
    <v>       0.60768002       0.55770999       0.21957000 </v>
    <v>       0.61921000       0.49454001       0.23293001 </v>
    <v>       0.80276001       0.47911999       0.20491999 </v>
    <v>       0.87395000       0.54986000       0.20347001 </v>
    <v>       0.30938000       0.30834001       0.33107999 </v>
    <v>       0.43634999       0.38352999       0.43695000 </v>
    <v>       0.57573003       0.39326999       0.37412000 </v>
    <v>       0.42286000       0.51365000       0.47457001 </v>
    <v>       0.31924999       0.45142001       0.34200999 </v>
    <v>       0.45675001       0.37505001       0.25784001 </v>
    <v>       0.56143999       0.52679998       0.42552999 </v>
    <v>       0.47499999       0.53302997       0.28939000 </v>
   </varray>
  </structure>
  <varray name="forces" >
   <v>       0.01640766       0.04928926       0.02435885 </v>
   <v>       0.01663925       0.00695236      -0.00576414 </v>
   <v>      -0.02601506      -0.05614022      -0.00773186 </v>
   <v>      -0.04237606       0.00681590      -0.00316041 </v>
   <v>       0.04487947      -0.02459340       0.02536528 </v>
   <v>       0.02520729       0.03246693      -0.00104340 </v>
   <v>      -0.10465294      -0.04670418      -0.10083181 </v>
   <v>      -0.03530588      -0.00167523      -0.00071443 </v>
   <v>      -0.00825490       0.01568082       0.00001805 </v>
   <v>       0.02049541      -0.02779057      -0.00168025 </v>
   <v>      -0.08788292      -0.03903120      -0.11551751 </v>
   <v>      -0.01270227      -0.02821637      -0.00165803 </v>
   <v>      -0.11835669       0.06610114       0.13785236 </v>
   <v>       0.22549634      -0.03892836      -0.07248206 </v>
   <v>       0.01135697      -0.01988200       0.00465498 </v>
   <v>      -0.01056419       0.01361664       0.00339443 </v>
   <v>      -0.00984007      -0.02371572       0.00267365 </v>
   <v>       0.01622465       0.02288796       0.00180690 </v>
   <v>      -0.03261923      -0.08187945      -0.00391251 </v>
   <v>       0.02258017       0.00519621      -0.03479352 </v>
   <v>      -0.00894569       0.03600191       0.00215648 </v>
   <v>       0.05954141      -0.12098695       0.10264600 </v>
   <v>      -0.04952833       0.07756869       0.07757051 </v>
   <v>       0.00663455       0.05528877      -0.02291963 </v>
   <v>       0.02051090       0.01153802      -0.00811764 </v>
   <v>      -0.07727449      -0.06835576      -0.04686069 </v>
   <v>       0.04075160      -0.06429545       0.00422828 </v>
   <v>       0.53633799       1.68108258      -0.04585130 </v>
   <v>       0.02174632       0.05853658      -0.00382211 </v>
   <v>      -0.00995919      -0.02366242      -0.00135309 </v>
   <v>      -0.01463784       0.00149387       0.00386458 </v>
   <v>       0.03179867      -0.00003912       0.00173229 </v>
   <v>      -0.03354924       0.07171262      -0.00013203 </v>
   <v>       0.02944980      -0.04231070       0.00126147 </v>
   <v>      -0.02050957      -0.03956964       0.00495802 </v>
   <v>       0.01895994       0.03037770       0.00503781 </v>
   <v>      -0.02180765      -0.01275321       0.00027785 </v>
   <v>      -0.03341337      -0.02721874       0.00459169 </v>
   <v>      -0.00416037       0.01235741       0.00081093 </v>
   <v>       0.03432199       0.01469114      -0.00030101 </v>
   <v>      -0.02965532      -0.00327702       0.00308657 </v>
   <v>      -0.00428899      -0.00507865       0.00271049 </v>
   <v>       0.01993355       0.00363709      -0.00023833 </v>
   <v>       0.04027589       0.00093968      -0.00191987 </v>
   <v>      -0.00096161      -0.00146056       0.00237422 </v>
   <v>       0.01282747      -0.01420285       0.00116415 </v>
   <v>       0.01454620       0.01569442       0.00487796 </v>
   <v>      -0.00205845      -0.01650014      -0.00264133 </v>
   <v>      -0.01305138       0.00063633       0.00044844 </v>
   <v>       0.04343014       0.00408132      -0.00004994 </v>
   <v>       0.00538915      -0.00653698       0.00231051 </v>
   <v>      -0.01286269       0.02470530       0.00373456 </v>
   <v>      -0.02829042      -0.22765721       0.25288377 </v>
   <v>       0.20672439       0.37153951      -0.10686041 </v>
   <v>       0.12246198       0.13651320      -0.01575160 </v>
   <v>       0.04744303      -0.06623378       0.00923150 </v>
   <v>      -0.00471730      -0.27050339       0.05400471 </v>
   <v>      -0.01299190      -0.00253311      -0.00357092 </v>
   <v>       0.01288099      -0.09828347       0.00294391 </v>
   <v>      -0.01411100       0.13222453      -0.00219266 </v>
   <v>      -0.07261783       0.01162534      -0.00898768 </v>
   <v>      -0.05735196      -0.00217283       0.00181343 </v>
   <v>      -0.04001342       0.47916824       0.12883422 </v>
   <v>      -0.00937423       0.02568725       0.00003682 </v>
   <v>       0.03386453       0.04277563       0.00457614 </v>
   <v>      -0.17153238      -0.11632272      -0.06731010 </v>
   <v>       0.05993812      -0.00247032      -0.00276625 </v>
   <v>      -0.05792943      -0.00487941       0.00694018 </v>
   <v>       1.09949387      -1.34721518       0.71332236 </v>
   <v>      -1.55451166      -0.85621571      -0.52625159 </v>
   <v>      -0.02137095      -0.03155220      -0.01607616 </v>
   <v>      -0.00764615      -0.00133523       0.00649034 </v>
   <v>       0.29118150       0.27112768       0.00100076 </v>
   <v>      -0.57832656       0.13728197       0.14539456 </v>
   <v>      -0.16069855       0.31570207      -0.10368293 </v>
   <v>       0.11619083      -0.37595470      -0.18690446 </v>
   <v>       0.43058619      -0.05013957       0.13478581 </v>
   <v>      -0.08302032       0.11449359       0.06775677 </v>
   <v>      -0.02357454       0.05174764      -0.45196145 </v>
   <v>      -0.03319528      -0.12096360       0.01583050 </v>
  </varray>
  <varray name="stress" >
   <v>     -21.67681320       1.48483327      -0.29673642 </v>
   <v>       1.48483329     -23.67267896       0.18716161 </v>
   <v>      -0.29673641       0.18716163      -4.36962195 </v>
  </varray>
  <energy>
   <i name="e_fr_energy">   -639.07289916 </i>
   <i name="e_wo_entrp">   -638.92096752 </i>
   <i name="e_0_energy">     -0.30386329 </i>
  </energy>
  <time name="totalsc">  458.83  471.12</time>
 </calculation>
 <calculation>
  <scstep>
   <time name="diag">    2.34    2.35</time>
   <time name="diis">    6.23    6.26</time>
   <time name="orth">    0.32    0.32</time>
   <time name="total">   10.07   10.12</time>
   <energy>
    <i name="alphaZ">    196.40581935 </i>
    <i name="ewald">  26257.03916874 </i>
    <i name="hartreedc"> -41454.30973951 </i>
    <i name="XCdc">    763.78290677 </i>
    <i name="pawpsdc">  10459.42693465 </i>
    <i name="pawaedc"> -10059.19123345 </i>
    <i name="eentropy">     -0.31330527 </i>
    <i name="bandstr">  -3873.24009730 </i>
    <i name="atom">  17071.11285939 </i>
    <i name="e_fr_energy">   -639.28668665 </i>
    <i name="e_wo_entrp">   -638.97338137 </i>
    <i name="e_0_energy">   -639.13003401 </i>
   </energy>
  </scstep>
  <scstep>
   <time name="diag">    2.34    2.35</time>
   <time name="diis">    7.03    7.05</time>
   <time name="orth">    0.32    0.32</time>
   <time name="total">   10.87   10.91</time>
   <energy>
    <i name="e_fr_energy">   -639.04775984 </i>
    <i name="e_wo_entrp">   -638.79104455 </i>
    <i name="e_0_energy">   -638.91940220 </i>
   </energy>
  </scstep>
  <scstep>
   <time name="diag">    2.32    2.33</time>
   <time name="diis">    7.26    7.29</time>
   <time name="orth">    0.33    0.33</time>
   <time name="total">   11.16   11.23</time>
   <energy>
    <i name="e_fr_energy">   -638.94608242 </i>
    <i name="e_wo_entrp">   -638.60964642 </i>
    <i name="e_0_energy">   -638.77786442 </i>
   </energy>
  </scstep>
  <scstep>
   <time name="diag">    2.69    2.72</time>
   <time name="diis">    9.52    9.86</time>
   <time name="orth">    0.33    0.33</time>
   <time name="total">   15.42   15.85</time>
   <energy>
    <i name="e_fr_energy">   -638.91259657 </i>
    <i name="e_wo_entrp">   -638.65079178 </i>
    <i name="e_0_energy">   -638.78169417 </i>
   </energy>
  </scstep>
  <scstep>
   <time name="diag">    2.91    2.92</time>
   <time name="diis">    7.09    7.26</time>
   <time name="orth">    0.33    0.33</time>
   <time name="total">   12.49   12.72</time>
   <energy>
    <i name="e_fr_energy">   -638.89182728 </i>
    <i name="e_wo_entrp">   -638.57822084 </i>
    <i name="e_0_energy">   -638.73502406 </i>
   </energy>
  </scstep>
  <scstep>
   <time name="diag">    2.97    3.01</time>
   <time name="diis">    8.25    8.27</time>
   <time name="orth">    0.33    0.33</time>
   <time name="total">   12.96   13.05</time>
   <energy>
    <i name="e_fr_energy">   -638.88606748 </i>
    <i name="e_wo_entrp">   -638.59226574 </i>
    <i name="e_0_energy">   -638.73916661 </i>
   </energy>
  </scstep>
  <scstep>
   <time name="diag">    2.74    2.75</time>
   <time name="diis">    7.10    7.65</time>
   <time name="orth">    0.32    0.32</time>
   <time name="total">   11.52   12.15</time>
   <energy>
    <i name="e_fr_energy">   -638.88534574 </i>
    <i name="e_wo_entrp">   -638.58304014 </i>
    <i name="e_0_energy">   -638.73419294 </i>
   </energy>
  </scstep>
  <scstep>
   <time name="diag">    2.33    2.33</time>
   <time name="diis">    7.24    7.30</time>
   <time name="orth">    0.37    0.37</time>
   <time name="total">   11.25   11.34</time>
   <energy>
    <i name="e_fr_energy">   -638.88402798 </i>
    <i name="e_wo_entrp">   -638.58366821 </i>
    <i name="e_0_energy">   -638.73384809 </i>
   </energy>
  </scstep>
  <scstep>
   <time name="diag">    2.54    2.96</time>
   <time name="diis">    7.20    7.21</time>
   <time name="orth">    0.33    0.33</time>
   <time name="total">   13.13   13.60</time>
   <energy>
    <i name="e_fr_energy">   -638.88396662 </i>
    <i name="e_wo_entrp">   -638.58344097 </i>
    <i name="e_0_energy">   -638.73370379 </i>
   </energy>
  </scstep>
  <scstep>
   <time name="diag">    2.53    2.54</time>
   <time name="diis">    9.32    9.39</time>
   <time name="orth">    0.74    0.74</time>
   <time name="total">   14.87   15.01</time>
   <energy>
    <i name="e_fr_energy">   -638.88396947 </i>
    <i name="e_wo_entrp">   -638.58397878 </i>
    <i name="e_0_energy">   -638.73397413 </i>
   </energy>
  </scstep>
  <scstep>
   <time name="diag">    2.59    3.11</time>
   <time name="diis">    5.88    5.90</time>
   <time name="orth">    0.41    0.41</time>
   <time name="total">   10.19   10.77</time>
   <energy>
    <i name="e_fr_energy">   -638.88399027 </i>
    <i name="e_wo_entrp">   -638.58370089 </i>
    <i name="e_0_energy">   -638.73384558 </i>
   </energy>
  </scstep>
  <scstep>
   <time name="diag">    2.50    2.58</time>
   <time name="diis">    5.70    5.71</time>
   <time name="orth">    0.35    0.36</time>
   <time name="total">    9.30    9.43</time>
   <energy>
    <i name="alphaZ">    196.40581935 </i>
    <i name="ewald">  26257.03916874 </i>
    <i name="hartreedc"> -41460.13753074 </i>
    <i name="XCdc">    764.05150989 </i>
    <i name="pawpsdc">  10478.96887776 </i>
    <i name="pawaedc"> -10078.85385917 </i>
    <i name="eentropy">     -0.30022036 </i>
    <i name="bandstr">  -3867.17062166 </i>
    <i name="atom">  17071.11285939 </i>
    <i name="e_fr_energy">   -638.88399681 </i>
    <i name="e_wo_entrp">   -638.58377645 </i>
    <i name="e_0_energy">   -638.73388663 </i>
   </energy>
  </scstep>
  <dipole>
   <v name="dipole">      0.00000000       0.00000000      -0.63386443 </v>
   <i name="Tr[quadrupol]"> -27600.17139451 </i>
   <i name="Echarged">      0.00000000 </i>
   <i name="Edipol_quadrupol">      0.00000000 </i>
   <i name="Eion">      0.00000000 </i>
  </dipole>
  <structure>
   <crystal>
    <varray name="basis" >
     <v>      19.20000076       0.00000000       0.00000000 </v>
     <v>      -9.60000038      16.62768841       0.00000000 </v>
     <v>       0.00000000       0.00000000      15.00000000 </v>
    </varray>
    <i name="volume">   4788.77445334 </i>
    <varray name="rec_basis" >
     <v>       0.05208333       0.03007033       0.00000000 </v>
     <v>       0.00000000       0.06014065       0.00000000 </v>
     <v>       0.00000000       0.00000000       0.06666667 </v>
    </varray>
   </crystal>
   <varray name="positions" >
    <v>       0.16065273       0.26160301       0.20657834 </v>
    <v>       0.01091189       0.26336017       0.19892146 </v>
    <v>       0.08508319       0.18639712       0.20072513 </v>
    <v>       0.08678341       0.33869977       0.20289984 </v>
    <v>       0.16165708       0.33768865       0.20859158 </v>
    <v>       0.01016044       0.18738420       0.19802664 </v>
    <v>       0.23427930       0.26022450       0.21686570 </v>
    <v>       0.93719887       0.26408514       0.19719770 </v>
    <v>       0.08520200       0.11225549       0.19970006 </v>
    <v>       0.08744118       0.41316937       0.20279460 </v>
    <v>       0.23622256       0.41173676       0.22133847 </v>
    <v>       0.93584715       0.11341813       0.19551467 </v>
    <v>       0.29542851       0.25091178       0.20396336 </v>
    <v>       0.36921012       0.25595704       0.19628689 </v>
    <v>       0.08615969       0.04807231       0.19921498 </v>
    <v>       0.08727321       0.97768949       0.19872091 </v>
    <v>       0.30254087       0.97807119       0.19521859 </v>
    <v>       0.37360397       0.04919641       0.19448581 </v>
    <v>       0.66359926       0.26475244       0.19853742 </v>
    <v>       0.51310428       0.26284507       0.20293810 </v>
    <v>       0.58854974       0.18821445       0.19660694 </v>
    <v>       0.58764412       0.33894898       0.21367013 </v>
    <v>       0.66356808       0.34091504       0.20498948 </v>
    <v>       0.51266690       0.18767041       0.19672628 </v>
    <v>       0.73804828       0.26555348       0.19694389 </v>
    <v>       0.44070669       0.26783166       0.20347929 </v>
    <v>       0.58903915       0.11393346       0.19506360 </v>
    <v>       0.57999635       0.41323740       0.23823253 </v>
    <v>       0.73801955       0.41495984       0.20561771 </v>
    <v>       0.43822064       0.11342135       0.19438565 </v>
    <v>       0.80237539       0.26511432       0.19664243 </v>
    <v>       0.87299982       0.26460988       0.19672558 </v>
    <v>       0.58820975       0.04908806       0.19472957 </v>
    <v>       0.58752261       0.97738722       0.19478406 </v>
    <v>       0.80093106       0.97747522       0.19405595 </v>
    <v>       0.87163172       0.04874814       0.19450620 </v>
    <v>       0.16394671       0.76368297       0.19900089 </v>
    <v>       0.01304656       0.76394106       0.19949476 </v>
    <v>       0.08831748       0.68812588       0.20020261 </v>
    <v>       0.08862755       0.83944262       0.19857903 </v>
    <v>       0.16398073       0.83919051       0.19800993 </v>
    <v>       0.01302186       0.68832527       0.20050871 </v>
    <v>       0.23802536       0.76323056       0.19908924 </v>
    <v>       0.93899254       0.76389275       0.19942383 </v>
    <v>       0.08814547       0.61373579       0.20098763 </v>
    <v>       0.08835163       0.91358880       0.19845374 </v>
    <v>       0.23826931       0.91351550       0.19648570 </v>
    <v>       0.93857090       0.61425214       0.20200151 </v>
    <v>       0.30197813       0.76218182       0.19949144 </v>
    <v>       0.37266506       0.76134185       0.19999984 </v>
    <v>       0.08787406       0.54902105       0.20158743 </v>
    <v>       0.08765352       0.47799167       0.20228201 </v>
    <v>       0.29739866       0.48139947       0.21163332 </v>
    <v>       0.37315840       0.54950799       0.21869632 </v>
    <v>       0.66473573       0.76335609       0.19945933 </v>
    <v>       0.51165312       0.76175785       0.20058969 </v>
    <v>       0.58921573       0.68734520       0.20786369 </v>
    <v>       0.58719371       0.83827267       0.19660852 </v>
    <v>       0.66295981       0.83811485       0.19602948 </v>
    <v>       0.51403637       0.68849362       0.20780295 </v>
    <v>       0.73862438       0.76377373       0.19919110 </v>
    <v>       0.43686273       0.76104368       0.20047583 </v>
    <v>       0.58250459       0.61100025       0.22383435 </v>
    <v>       0.58704370       0.91253456       0.19514012 </v>
    <v>       0.73688714       0.91276408       0.19433471 </v>
    <v>       0.44339025       0.60975252       0.22173351 </v>
    <v>       0.80351702       0.76379286       0.19918111 </v>
    <v>       0.87422736       0.76390585       0.19919231 </v>
    <v>       0.60848829       0.55380126       0.22186417 </v>
    <v>       0.61406199       0.49205583       0.23123749 </v>
    <v>       0.80266054       0.47902844       0.20486829 </v>
    <v>       0.87392886       0.54985613       0.20349088 </v>
    <v>       0.31050495       0.30912665       0.33108321 </v>
    <v>       0.43509601       0.38392829       0.43741761 </v>
    <v>       0.57578423       0.39418595       0.37378653 </v>
    <v>       0.42260656       0.51255923       0.47396889 </v>
    <v>       0.32025916       0.45127454       0.34244349 </v>
    <v>       0.45670750       0.37538219       0.25805793 </v>
    <v>       0.56145583       0.52695011       0.42407640 </v>
    <v>       0.47474111       0.53267902       0.28944091 </v>
   </varray>
  </structure>
  <varray name="forces" >
   <v>      -0.13306089      -0.09762355       0.00655178 </v>
   <v>      -0.07455564       0.02929922      -0.00618099 </v>
   <v>       0.00304562       0.10754894       0.00606275 </v>
   <v>       0.09960386      -0.06862588       0.00902947 </v>
   <v>      -0.15098433      -0.06175632       0.01149586 </v>
   <v>      -0.02805921      -0.09515608      -0.00406113 </v>
   <v>       0.07230796      -0.01238531      -0.07961063 </v>
   <v>       0.28331798      -0.01519068      -0.00054780 </v>
   <v>       0.07055036      -0.15215535      -0.00610976 </v>
   <v>      -0.13981221       0.23892178      -0.00412321 </v>
   <v>      -0.12418799      -0.22095116      -0.08241493 </v>
   <v>       0.11992938       0.22522189       0.00171187 </v>
   <v>       0.48267391       0.08258038       0.09466796 </v>
   <v>      -1.12492645      -0.12494272      -0.05092520 </v>
   <v>      -0.08307770       0.13858016       0.00431003 </v>
   <v>       0.07538030      -0.12727863       0.00370074 </v>
   <v>       0.09827074       0.16066906       0.00039013 </v>
   <v>      -0.10200271      -0.18387664       0.00116517 </v>
   <v>       0.08274534       0.17272345       0.02145759 </v>
   <v>      -0.20634651       0.18458638       0.05262243 </v>
   <v>       0.02990850      -0.13843094      -0.00763284 </v>
   <v>      -0.21842615       0.96659964       0.15993209 </v>
   <v>       0.07265777      -0.21823429       0.08319786 </v>
   <v>      -0.00013529      -0.05248597      -0.00458775 </v>
   <v>      -0.18716979      -0.01651130      -0.01172380 </v>
   <v>       0.78292024       0.05107480       0.00462576 </v>
   <v>      -0.30831899       0.52878282       0.00577912 </v>
   <v>       1.05633478      -3.87322022       0.34046889 </v>
   <v>      -0.20275819      -0.28919709       0.01575836 </v>
   <v>       0.10749814       0.20070293      -0.00630879 </v>
   <v>       0.18418124       0.00454042       0.00191786 </v>
   <v>      -0.29216685       0.00533219      -0.00037217 </v>
   <v>       0.34842557      -0.60517907      -0.00106751 </v>
   <v>      -0.21398883       0.38753896      -0.00112747 </v>
   <v>       0.19761103       0.34337162       0.00409626 </v>
   <v>      -0.14121884      -0.24925653      -0.00078703 </v>
   <v>       0.02446008       0.04938912       0.00033861 </v>
   <v>       0.02409652       0.01861436       0.00221298 </v>
   <v>      -0.02132418      -0.03567345       0.00187987 </v>
   <v>      -0.05573590      -0.00584081       0.00205006 </v>
   <v>       0.05793468      -0.01577610       0.00102948 </v>
   <v>       0.00290920      -0.01930169       0.00265497 </v>
   <v>      -0.10798298       0.00325439      -0.00053292 </v>
   <v>      -0.27895155      -0.00857220      -0.00069274 </v>
   <v>       0.00084818      -0.00526542       0.00152134 </v>
   <v>      -0.03540089       0.08885552       0.00073921 </v>
   <v>      -0.07210870      -0.13235091       0.00566595 </v>
   <v>       0.01121161      -0.00296022      -0.00066978 </v>
   <v>       0.13148313       0.00392075       0.00060424 </v>
   <v>      -0.36557712       0.00541620      -0.00309155 </v>
   <v>      -0.03456890       0.06364303       0.00208175 </v>
   <v>       0.13556551      -0.23225635       0.00463838 </v>
   <v>       0.67735059       0.90116720       0.29771206 </v>
   <v>      -1.36515207      -1.88172050      -0.19542693 </v>
   <v>      -0.18472575      -0.14211374      -0.04328316 </v>
   <v>      -0.08371379       0.11650729       0.01267126 </v>
   <v>       0.30407670       0.53914624      -0.07645827 </v>
   <v>       0.01009059      -0.00481256      -0.00592014 </v>
   <v>       0.06527732       0.14830044       0.00475403 </v>
   <v>      -0.13722808      -0.41773783       0.07601870 </v>
   <v>       0.47609512       0.06900294      -0.01584605 </v>
   <v>       0.38446552      -0.03992419       0.00867525 </v>
   <v>       2.08751323      -2.78148558       0.55155926 </v>
   <v>       0.16163309      -0.26589827      -0.00023858 </v>
   <v>      -0.19856398      -0.35508556       0.01183122 </v>
   <v>       0.88962027       1.63112498      -0.12760992 </v>
   <v>      -0.45729251      -0.00737097      -0.00056695 </v>
   <v>       0.35509824      -0.00785948       0.00502463 </v>
   <v>      -4.13271398       5.69009080      -0.15597825 </v>
   <v>       0.98462263      -0.77489110      -0.53685688 </v>
   <v>       0.18480881       0.32924825      -0.01717134 </v>
   <v>      -0.02536689      -0.04220552       0.00056138 </v>
   <v>       0.25161439       0.14875922      -0.07193357 </v>
   <v>      -0.38883154       0.04307143       0.13595209 </v>
   <v>      -0.19056150       0.14351422       0.04409426 </v>
   <v>       0.08994976      -0.23822853      -0.08053543 </v>
   <v>       0.24730506      -0.07635480       0.09712049 </v>
   <v>      -0.00533542       0.12948574       0.07282983 </v>
   <v>       0.03954033       0.06682557      -0.34870940 </v>
   <v>       0.10739902       0.07873123      -0.22406043 </v>
  </varray>
  <varray name="stress" >
   <v>     -21.41611611       1.48653531       0.10739941 </v>
   <v>       1.48653528     -20.56126708      -0.44467681 </v>
   <v>       0.10739941      -0.44467682      -4.14626848 </v>
  </varray>
  <energy>
   <i name="e_fr_energy">   -638.87455994 </i>
   <i name="e_wo_entrp">   -638.72444976 </i>
   <i name="e_0_energy">     -0.30022036 </i>
  </energy>
  <time name="totalsc">  161.51  165.01</time>
 </calculation>
 <calculation>
  <scstep>
   <time name="diag">    2.59    2.59</time>
   <time name="diis">    6.83    6.84</time>
   <time name="orth">    0.39    0.39</time>
   <time name="total">   11.36   11.40</time>
   <energy>
    <i name="alphaZ">    196.40581935 </i>
    <i name="ewald">  26207.82614746 </i>
    <i name="hartreedc"> -41415.13196427 </i>
    <i name="XCdc">    763.77984288 </i>
    <i name="pawpsdc">  10478.97911830 </i>
    <i name="pawaedc"> -10078.86384911 </i>
    <i name="eentropy">     -0.28995666 </i>
    <i name="bandstr">  -3863.14119324 </i>
    <i name="atom">  17071.11285939 </i>
    <i name="e_fr_energy">   -639.32317591 </i>
    <i name="e_wo_entrp">   -639.03321925 </i>
    <i name="e_0_energy">   -639.17819758 </i>
   </energy>
  </scstep>
  <scstep>
   <time name="diag">    2.73    2.77</time>
   <time name="diis">    7.08    7.13</time>
   <time name="orth">    2.25    2.32</time>
   <time name="total">   13.88   14.12</time>
   <energy>
    <i name="e_fr_energy">   -639.31610897 </i>
    <i name="e_wo_entrp">   -638.94545140 </i>
    <i name="e_0_energy">   -639.13078018 </i>
   </energy>
  </scstep>
  <scstep>
   <time name="diag">    2.56    2.57</time>
   <time name="diis">    8.13    8.20</time>
   <time name="orth">    0.35    0.35</time>
   <time name="total">   12.56   12.65</time>
   <energy>
    <i name="e_fr_energy">   -639.25459123 </i>
    <i name="e_wo_entrp">   -639.01256940 </i>
    <i name="e_0_energy">   -639.13358031 </i>
   </energy>
  </scstep>
  <scstep>
   <time name="diag">    3.64    3.73</time>
   <time name="diis">    7.68    7.78</time>
   <time name="orth">    0.32    0.33</time>
   <time name="total">   14.24   14.45</time>
   <energy>
    <i name="e_fr_energy">   -639.20679794 </i>
    <i name="e_wo_entrp">   -638.90083873 </i>
    <i name="e_0_energy">   -639.05381834 </i>
   </energy>
  </scstep>
  <scstep>
   <time name="diag">    2.57    2.58</time>
   <time name="diis">    7.06    7.16</time>
   <time name="orth">    0.33    0.33</time>
   <time name="total">   12.05   12.39</time>
   <energy>
    <i name="e_fr_energy">   -639.20647107 </i>
    <i name="e_wo_entrp">   -638.91197315 </i>
    <i name="e_0_energy">   -639.05922211 </i>
   </energy>
  </scstep>
  <scstep>
   <time name="diag">    3.01    3.02</time>
   <time name="diis">    7.30    7.82</time>
   <time name="orth">    0.42    0.42</time>
   <time name="total">   12.13   12.68</time>
   <energy>
    <i name="e_fr_energy">   -639.20087976 </i>
    <i name="e_wo_entrp">   -638.89393720 </i>
    <i name="e_0_energy">   -639.04740848 </i>
   </energy>
  </scstep>
  <scstep>
   <time name="diag">    4.77    4.88</time>
   <time name="diis">    7.12    7.15</time>
   <time name="orth">    2.30    2.31</time>
   <time name="total">   15.67   15.98</time>
   <energy>
    <i name="e_fr_energy">   -639.20055692 </i>
    <i name="e_wo_entrp">   -638.89984465 </i>
    <i name="e_0_energy">   -639.05020079 </i>
   </energy>
  </scstep>
  <scstep>
   <time name="diag">    2.59    2.60</time>
   <time name="diis">    7.99    8.01</time>
   <time name="orth">    0.33    0.33</time>
   <time name="total">   12.57   12.61</time>
   <energy>
    <i name="e_fr_energy">   -639.20030363 </i>
    <i name="e_wo_entrp">   -638.89914218 </i>
    <i name="e_0_energy">   -639.04972290 </i>
   </energy>
  </scstep>
  <scstep>
   <time name="diag">    2.78    2.79</time>
   <time name="diis">    6.31    6.33</time>
   <time name="orth">    0.33    0.33</time>
   <time name="total">   10.90   10.94</time>
   <energy>
    <i name="e_fr_energy">   -639.20028278 </i>
    <i name="e_wo_entrp">   -638.89827678 </i>
    <i name="e_0_energy">   -639.04927978 </i>
   </energy>
  </scstep>
  <scstep>
   <time name="diag">    3.76    3.78</time>
   <time name="diis">    5.65    5.67</time>
   <time name="orth">    0.32    0.32</time>
   <time name="total">   11.15   11.21</time>
   <energy>
    <i name="e_fr_energy">   -639.20026544 </i>
    <i name="e_wo_entrp">   -638.89852368 </i>
    <i name="e_0_energy">   -639.04939456 </i>
   </energy>
  </scstep>
  <scstep>
   <time name="diag">    2.70    2.74</time>
   <time name="diis">    5.42    5.46</time>
   <time name="orth">    0.94    0.94</time>
   <time name="total">    9.61    9.71</time>
   <energy>
    <i name="alphaZ">    196.40581935 </i>
    <i name="ewald">  26207.82614746 </i>
    <i name="hartreedc"> -41411.71512513 </i>
    <i name="XCdc">    763.62421744 </i>
    <i name="pawpsdc">  10465.29626026 </i>
    <i name="pawaedc"> -10065.09510753 </i>
    <i name="eentropy">     -0.30218275 </i>
    <i name="bandstr">  -3866.35315915 </i>
    <i name="atom">  17071.11285939 </i>
    <i name="e_fr_energy">   -639.20027066 </i>
    <i name="e_wo_entrp">   -638.89808791 </i>
    <i name="e_0_energy">   -639.04917928 </i>
   </energy>
  </scstep>
  <dipole>
   <v name="dipole">      0.00000000       0.00000000      -0.62684916 </v>
   <i name="Tr[quadrupol]"> -27592.74404513 </i>
   <i name="Echarged">      0.00000000 </i>
   <i name="Edipol_quadrupol">      0.00000000 </i>
   <i name="Eion">      0.00000000 </i>
  </dipole>
  <structure>
   <crystal>
    <varray name="basis" >
     <v>      19.20000076       0.00000000       0.00000000 </v>
     <v>      -9.60000038      16.62768841       0.00000000 </v>
     <v>       0.00000000       0.00000000      15.00000000 </v>
    </varray>
    <i name="volume">   4788.77445334 </i>
    <varray name="rec_basis" >
     <v>       0.05208333       0.03007033       0.00000000 </v>
     <v>       0.00000000       0.06014065       0.00000000 </v>
     <v>       0.00000000       0.00000000       0.06666667 </v>
    </varray>
   </crystal>
   <varray name="positions" >
    <v>       0.16058388       0.26151567       0.20653049 </v>
    <v>       0.01088020       0.26334785       0.19893278 </v>
    <v>       0.08517286       0.18649660       0.20074031 </v>
    <v>       0.08684240       0.33868770       0.20290605 </v>
    <v>       0.16161000       0.33773223       0.20854175 </v>
    <v>       0.01009299       0.18732666       0.19802869 </v>
    <v>       0.23448128       0.26030726       0.21706377 </v>
    <v>       0.93725454       0.26408811       0.19719911 </v>
    <v>       0.08520078       0.11222771       0.19970002 </v>
    <v>       0.08743435       0.41321861       0.20279790 </v>
    <v>       0.23639200       0.41180593       0.22156538 </v>
    <v>       0.93589164       0.11346813       0.19551792 </v>
    <v>       0.29555158       0.25079464       0.20369258 </v>
    <v>       0.36889856       0.25602602       0.19642926 </v>
    <v>       0.08615988       0.04810754       0.19920583 </v>
    <v>       0.08727735       0.97766536       0.19871424 </v>
    <v>       0.30257698       0.97811321       0.19521334 </v>
    <v>       0.37355879       0.04915585       0.19448226 </v>
    <v>       0.66372186       0.26489753       0.19854510 </v>
    <v>       0.51306502       0.26283586       0.20300644 </v>
    <v>       0.58853157       0.18815065       0.19660270 </v>
    <v>       0.58765994       0.33916337       0.21346850 </v>
    <v>       0.66357536       0.34077759       0.20483711 </v>
    <v>       0.51260773       0.18757244       0.19677130 </v>
    <v>       0.73800658       0.26553304       0.19695984 </v>
    <v>       0.44088584       0.26795279       0.20357134 </v>
    <v>       0.58903358       0.11404739       0.19505529 </v>
    <v>       0.57768384       0.41025852       0.23832260 </v>
    <v>       0.73793431       0.41485611       0.20562522 </v>
    <v>       0.43825688       0.11346328       0.19438831 </v>
    <v>       0.80239653       0.26511167       0.19663484 </v>
    <v>       0.87295106       0.26460995       0.19672217 </v>
    <v>       0.58819770       0.04896099       0.19472983 </v>
    <v>       0.58751490       0.97746219       0.19478159 </v>
    <v>       0.80099759       0.97754534       0.19404621 </v>
    <v>       0.87157571       0.04869431       0.19449631 </v>
    <v>       0.16399147       0.76370557       0.19900035 </v>
    <v>       0.01312195       0.76398929       0.19948575 </v>
    <v>       0.08831291       0.68810398       0.20020102 </v>
    <v>       0.08856186       0.83941658       0.19857962 </v>
    <v>       0.16402914       0.83919632       0.19800386 </v>
    <v>       0.01303294       0.68833427       0.20050339 </v>
    <v>       0.23799154       0.76322412       0.19908971 </v>
    <v>       0.93892990       0.76389109       0.19942760 </v>
    <v>       0.08814824       0.61373838       0.20098297 </v>
    <v>       0.08834452       0.91361397       0.19845146 </v>
    <v>       0.23823308       0.91348769       0.19647611 </v>
    <v>       0.93858867       0.61428138       0.20200670 </v>
    <v>       0.30199759       0.76218069       0.19949056 </v>
    <v>       0.37259479       0.76133462       0.19999994 </v>
    <v>       0.08787158       0.54903264       0.20158290 </v>
    <v>       0.08765137       0.47794790       0.20227468 </v>
    <v>       0.29764378       0.48180288       0.21113659 </v>
    <v>       0.37251198       0.54884962       0.21890623 </v>
    <v>       0.66442685       0.76311419       0.19949027 </v>
    <v>       0.51163900       0.76187522       0.20057156 </v>
    <v>       0.58946263       0.68782453       0.20775761 </v>
    <v>       0.58721589       0.83827716       0.19661553 </v>
    <v>       0.66302712       0.83828901       0.19602369 </v>
    <v>       0.51394088       0.68825932       0.20780726 </v>
    <v>       0.73872552       0.76375313       0.19920875 </v>
    <v>       0.43695267       0.76104753       0.20047227 </v>
    <v>       0.58214145       0.61015117       0.22358128 </v>
    <v>       0.58703533       0.91248904       0.19514005 </v>
    <v>       0.73679727       0.91268828       0.19432572 </v>
    <v>       0.44375654       0.60995865       0.22186573 </v>
    <v>       0.80342723       0.76379724       0.19918654 </v>
    <v>       0.87432058       0.76391450       0.19917868 </v>
    <v>       0.60799464       0.55618853       0.22046300 </v>
    <v>       0.61720615       0.49357305       0.23227120 </v>
    <v>       0.80272129       0.47908435       0.20489987 </v>
    <v>       0.87394177       0.54985849       0.20347813 </v>
    <v>       0.30981788       0.30864621       0.33108124 </v>
    <v>       0.43586188       0.38368503       0.43713202 </v>
    <v>       0.57575112       0.39362652       0.37399020 </v>
    <v>       0.42276135       0.51322542       0.47433602 </v>
    <v>       0.31964281       0.45136338       0.34217873 </v>
    <v>       0.45673346       0.37517931       0.25792483 </v>
    <v>       0.56144615       0.52685842       0.42496418 </v>
    <v>       0.47489922       0.53289336       0.28940982 </v>
   </varray>
  </structure>
  <varray name="forces" >
   <v>      -0.04072871      -0.00552401       0.01759591 </v>
   <v>      -0.01845489       0.01628351      -0.00610064 </v>
   <v>      -0.01629374       0.00649857      -0.00219535 </v>
   <v>       0.01343251      -0.02260374       0.00268665 </v>
   <v>      -0.02976724      -0.04050341       0.02135530 </v>
   <v>       0.00589694      -0.01617699      -0.00183987 </v>
   <v>      -0.03811703      -0.03298169      -0.09114775 </v>
   <v>       0.08765185      -0.00658607      -0.00093044 </v>
   <v>       0.02209275      -0.04918328      -0.00223609 </v>
   <v>      -0.04201706       0.07624872      -0.00277957 </v>
   <v>      -0.09976613      -0.10526565      -0.10112399 </v>
   <v>       0.03800155       0.06898577      -0.00036740 </v>
   <v>       0.12311345       0.07364315       0.12203106 </v>
   <v>      -0.29512055      -0.07050546      -0.06270779 </v>
   <v>      -0.02478034       0.04151712       0.00497140 </v>
[...]
       <r>   -22.5439     0.0000     0.0000 </r>
       <r>   -22.4488     0.0000     0.0000 </r>
       <r>   -22.3537     0.0000     0.0000 </r>
       <r>   -22.2586     0.0000     0.0000 </r>
       <r>   -22.1635     0.0003     0.0000 </r>
       <r>   -22.0684     0.0041     0.0004 </r>
       <r>   -21.9733     0.0395     0.0042 </r>
       <r>   -21.8782     0.2552     0.0284 </r>
       <r>   -21.7831     1.1155     0.1345 </r>
       <r>   -21.6880     3.3368     0.4518 </r>
       <r>   -21.5929     6.8949     1.1075 </r>
       <r>   -21.4978     9.8730     2.0464 </r>
       <r>   -21.4027     9.7613     2.9747 </r>
       <r>   -21.3076     6.6060     3.6029 </r>
       <r>   -21.2125     3.0275     3.8909 </r>
       <r>   -21.1174     0.9300     3.9793 </r>
       <r>   -21.0223     0.1898     3.9973 </r>
       <r>   -20.9272     0.0259     3.9998 </r>
       <r>   -20.8322     0.0069     4.0005 </r>
       <r>   -20.7371     0.0431     4.0046 </r>
       <r>   -20.6420     0.2616     4.0294 </r>
       <r>   -20.5469     1.0641     4.1306 </r>
       <r>   -20.4518     2.9363     4.4099 </r>
       <r>   -20.3567     5.5922     4.9417 </r>
       <r>   -20.2616     7.5328     5.6580 </r>
       <r>   -20.1665     7.6495     6.3855 </r>
       <r>   -20.0714     7.2474     7.0747 </r>
       <r>   -19.9763     8.7847     7.9101 </r>
       <r>   -19.8812    12.1331     9.0639 </r>
       <r>   -19.7861    14.2592    10.4199 </r>
       <r>   -19.6910    13.5192    11.7056 </r>
       <r>   -19.5959    11.3646    12.7864 </r>
       <r>   -19.5008     9.1808    13.6594 </r>
       <r>   -19.4057     6.8608    14.3119 </r>
       <r>   -19.3106     4.4483    14.7349 </r>
       <r>   -19.2155     2.9102    15.0116 </r>
       <r>   -19.1204     3.4288    15.3377 </r>
       <r>   -19.0253     6.2265    15.9298 </r>
       <r>   -18.9302    10.0423    16.8848 </r>
       <r>   -18.8351    12.9479    18.1162 </r>
       <r>   -18.7400    13.3927    19.3898 </r>
       <r>   -18.6449    11.4205    20.4758 </r>
       <r>   -18.5498     9.5160    21.3808 </r>
       <r>   -18.4547    10.0527    22.3368 </r>
       <r>   -18.3596    12.3155    23.5080 </r>
       <r>   -18.2645    13.5344    24.7951 </r>
       <r>   -18.1694    11.7898    25.9162 </r>
       <r>   -18.0743     8.1668    26.6929 </r>
       <r>   -17.9792     5.7883    27.2433 </r>
       <r>   -17.8841     6.0094    27.8148 </r>
       <r>   -17.7890     7.2819    28.5073 </r>
       <r>   -17.6939     7.9386    29.2623 </r>
       <r>   -17.5988     7.5172    29.9771 </r>
       <r>   -17.5037     5.8253    30.5311 </r>
       <r>   -17.4086     3.4751    30.8616 </r>
       <r>   -17.3135     2.1566    31.0667 </r>
       <r>   -17.2184     3.0950    31.3610 </r>
       <r>   -17.1233     5.8464    31.9170 </r>
       <r>   -17.0282     8.2527    32.7018 </r>
       <r>   -16.9331     8.6740    33.5267 </r>
       <r>   -16.8380     8.4776    34.3329 </r>
       <r>   -16.7429     9.6372    35.2493 </r>
       <r>   -16.6478    10.9127    36.2871 </r>
       <r>   -16.5527     9.9868    37.2368 </r>
       <r>   -16.4576     7.8259    37.9811 </r>
       <r>   -16.3625     7.2147    38.6672 </r>
       <r>   -16.2675     8.1002    39.4375 </r>
       <r>   -16.1724     7.7924    40.1785 </r>
       <r>   -16.0773     5.3060    40.6831 </r>
       <r>   -15.9822     2.4291    40.9141 </r>
       <r>   -15.8871     0.7393    40.9844 </r>
       <r>   -15.7920     0.1827    41.0018 </r>
       <r>   -15.6969     0.2792    41.0283 </r>
       <r>   -15.6018     1.2313    41.1454 </r>
       <r>   -15.5067     3.8503    41.5116 </r>
       <r>   -15.4116     8.0869    42.2806 </r>
       <r>   -15.3165    11.7056    43.3938 </r>
       <r>   -15.2214    12.3639    44.5696 </r>
       <r>   -15.1263    10.4801    45.5662 </r>
       <r>   -15.0312     7.7942    46.3075 </r>
       <r>   -14.9361     5.3522    46.8164 </r>
       <r>   -14.8410     3.9193    47.1892 </r>
       <r>   -14.7459     3.6261    47.5340 </r>
       <r>   -14.6508     3.8220    47.8975 </r>
       <r>   -14.5557     4.4629    48.3219 </r>
       <r>   -14.4606     5.9908    48.8916 </r>
       <r>   -14.3655     8.0264    49.6549 </r>
       <r>   -14.2704     9.7497    50.5821 </r>
       <r>   -14.1753    10.7948    51.6086 </r>
       <r>   -14.0802    10.5269    52.6097 </r>
       <r>   -13.9851     8.1156    53.3815 </r>
       <r>   -13.8900     4.6034    53.8193 </r>
       <r>   -13.7949     2.4139    54.0488 </r>
       <r>   -13.6998     2.6948    54.3051 </r>
       <r>   -13.6047     4.5632    54.7390 </r>
       <r>   -13.5096     6.0630    55.3156 </r>
       <r>   -13.4145     6.1762    55.9030 </r>
       <r>   -13.3194     5.9362    56.4675 </r>
       <r>   -13.2243     6.7442    57.1088 </r>
       <r>   -13.1292     8.4499    57.9124 </r>
       <r>   -13.0341     9.2394    58.7911 </r>
       <r>   -12.9390     7.9519    59.5473 </r>
       <r>   -12.8439     6.5395    60.1692 </r>
       <r>   -12.7488     7.6010    60.8920 </r>
       <r>   -12.6537    10.0476    61.8475 </r>
       <r>   -12.5586    10.2969    62.8267 </r>
       <r>   -12.4635     7.3209    63.5229 </r>
       <r>   -12.3684     3.5630    63.8618 </r>
       <r>   -12.2733     1.2827    63.9837 </r>
       <r>   -12.1782     0.8222    64.0619 </r>
       <r>   -12.0831     1.9205    64.2446 </r>
       <r>   -11.9880     4.4168    64.6646 </r>
       <r>   -11.8929     7.4627    65.3743 </r>
       <r>   -11.7978     9.3699    66.2653 </r>
       <r>   -11.7028     9.1469    67.1352 </r>
       <r>   -11.6077     7.9684    67.8930 </r>
       <r>   -11.5126     8.1653    68.6695 </r>
       <r>   -11.4175    10.3985    69.6583 </r>
       <r>   -11.3224    12.9533    70.8902 </r>
       <r>   -11.2273    14.0959    72.2307 </r>
       <r>   -11.1322    13.6346    73.5273 </r>
       <r>   -11.0371    11.7092    74.6408 </r>
       <r>   -10.9420     8.1969    75.4203 </r>
       <r>   -10.8469     4.2127    75.8209 </r>
       <r>   -10.7518     1.5148    75.9650 </r>
       <r>   -10.6567     0.5373    76.0161 </r>
       <r>   -10.5616     0.7771    76.0900 </r>
       <r>   -10.4665     1.8365    76.2646 </r>
       <r>   -10.3714     3.2289    76.5717 </r>
       <r>   -10.2763     4.3734    76.9876 </r>
       <r>   -10.1812     5.4431    77.5052 </r>
       <r>   -10.0861     7.5892    78.2269 </r>
       <r>    -9.9910    11.8082    79.3499 </r>
       <r>    -9.8959    17.0893    80.9750 </r>
       <r>    -9.8008    20.5611    82.9304 </r>
       <r>    -9.7057    20.4244    84.8727 </r>
       <r>    -9.6106    17.3146    86.5193 </r>
       <r>    -9.5155    13.2060    87.7751 </r>
       <r>    -9.4204    10.0616    88.7320 </r>
       <r>    -9.3253     8.5663    89.5466 </r>
       <r>    -9.2302     8.2471    90.3309 </r>
       <r>    -9.1351     8.6121    91.1499 </r>
       <r>    -9.0400     9.1393    92.0190 </r>
       <r>    -8.9449     8.8229    92.8580 </r>
       <r>    -8.8498     7.1444    93.5374 </r>
       <r>    -8.7547     5.4461    94.0554 </r>
       <r>    -8.6596     5.8413    94.6109 </r>
       <r>    -8.5645     8.7481    95.4428 </r>
       <r>    -8.4694    12.3098    96.6134 </r>
       <r>    -8.3743    13.8087    97.9266 </r>
       <r>    -8.2792    12.3530    99.1014 </r>
       <r>    -8.1841    10.4922   100.0991 </r>
       <r>    -8.0890    11.2523   101.1692 </r>
       <r>    -7.9939    14.0695   102.5072 </r>
       <r>    -7.8988    16.4851   104.0749 </r>
       <r>    -7.8037    18.4278   105.8273 </r>
       <r>    -7.7086    21.6621   107.8873 </r>
       <r>    -7.6135    26.8344   110.4392 </r>
       <r>    -7.5184    31.8709   113.4701 </r>
       <r>    -7.4233    32.6917   116.5790 </r>
       <r>    -7.3282    27.7294   119.2160 </r>
       <r>    -7.2331    20.7187   121.1863 </r>
       <r>    -7.1380    16.1682   122.7239 </r>
       <r>    -7.0430    14.4097   124.0942 </r>
       <r>    -6.9479    13.2810   125.3572 </r>
       <r>    -6.8528    11.6266   126.4629 </r>
       <r>    -6.7577     9.7867   127.3936 </r>
       <r>    -6.6626     8.4891   128.2009 </r>
       <r>    -6.5675     8.2621   128.9866 </r>
       <r>    -6.4724     9.4935   129.8894 </r>
       <r>    -6.3773    12.1510   131.0449 </r>
       <r>    -6.2822    15.6680   132.5349 </r>
       <r>    -6.1871    19.0060   134.3424 </r>
       <r>    -6.0920    20.6744   136.3084 </r>
       <r>    -5.9969    20.1885   138.2283 </r>
       <r>    -5.9018    18.8437   140.0203 </r>
       <r>    -5.8067    17.9162   141.7241 </r>
       <r>    -5.7116    17.7607   143.4131 </r>
       <r>    -5.6165    18.3419   145.1574 </r>
       <r>    -5.5214    19.5096   147.0127 </r>
       <r>    -5.4263    21.7037   149.0767 </r>
       <r>    -5.3312    25.7129   151.5220 </r>
       <r>    -5.2361    29.9919   154.3741 </r>
       <r>    -5.1410    30.7874   157.3019 </r>
       <r>    -5.0459    27.2660   159.8949 </r>
       <r>    -4.9508    22.5304   162.0375 </r>
       <r>    -4.8557    19.1684   163.8603 </r>
       <r>    -4.7606    17.6487   165.5387 </r>
       <r>    -4.6655    17.4596   167.1991 </r>
       <r>    -4.5704    17.7690   168.8889 </r>
       <r>    -4.4753    17.8872   170.5899 </r>
       <r>    -4.3802    17.4351   172.2479 </r>
       <r>    -4.2851    16.2235   173.7908 </r>
       <r>    -4.1900    14.6202   175.1811 </r>
       <r>    -4.0949    13.7570   176.4894 </r>
       <r>    -3.9998    14.5060   177.8689 </r>
       <r>    -3.9047    15.8721   179.3783 </r>
       <r>    -3.8096    15.3341   180.8365 </r>
       <r>    -3.7145    11.9371   181.9717 </r>
       <r>    -3.6194     7.7164   182.7055 </r>
       <r>    -3.5243     5.2089   183.2009 </r>
       <r>    -3.4292     5.0055   183.6769 </r>
       <r>    -3.3341     6.0620   184.2534 </r>
       <r>    -3.2390     7.1111   184.9296 </r>
       <r>    -3.1439     7.2730   185.6213 </r>
       <r>    -3.0488     6.4262   186.2324 </r>
       <r>    -2.9537     5.3549   186.7417 </r>
       <r>    -2.8586     5.2306   187.2391 </r>
       <r>    -2.7635     6.5354   187.8606 </r>
       <r>    -2.6684     8.0862   188.6296 </r>
       <r>    -2.5733     8.2850   189.4174 </r>
       <r>    -2.4783     7.1510   190.0975 </r>
       <r>    -2.3832     5.8165   190.6506 </r>
       <r>    -2.2881     5.1002   191.1356 </r>
       <r>    -2.1930     5.1135   191.6219 </r>
       <r>    -2.0979     5.2143   192.1178 </r>
       <r>    -2.0028     4.6439   192.5594 </r>
       <r>    -1.9077     3.6342   192.9050 </r>
       <r>    -1.8126     3.3163   193.2204 </r>
       <r>    -1.7175     4.2935   193.6287 </r>
       <r>    -1.6224     6.0363   194.2027 </r>
       <r>    -1.5273     7.8888   194.9530 </r>
       <r>    -1.4322     9.7941   195.8844 </r>
       <r>    -1.3371    11.9846   197.0241 </r>
       <r>    -1.2420    14.4567   198.3989 </r>
       <r>    -1.1469    16.9820   200.0138 </r>
       <r>    -1.0518    19.2059   201.8403 </r>
       <r>    -0.9567    20.3428   203.7748 </r>
       <r>    -0.8616    19.6787   205.6462 </r>
       <r>    -0.7665    17.4856   207.3091 </r>
       <r>    -0.6714    14.9118   208.7272 </r>
       <r>    -0.5763    13.1367   209.9764 </r>
       <r>    -0.4812    11.9843   211.1161 </r>
       <r>    -0.3861     9.9406   212.0614 </r>
       <r>    -0.2910     6.8967   212.7173 </r>
       <r>    -0.1959     4.9546   213.1885 </r>
       <r>    -0.1008     5.3979   213.7018 </r>
       <r>    -0.0057     7.0748   214.3746 </r>
       <r>     0.0894     8.5685   215.1895 </r>
       <r>     0.1845     9.7607   216.1177 </r>
       <r>     0.2796    10.3632   217.1032 </r>
       <r>     0.3747     9.4081   217.9979 </r>
       <r>     0.4698     7.1639   218.6792 </r>
       <r>     0.5649     5.5740   219.2092 </r>
       <r>     0.6600     5.7516   219.7562 </r>
       <r>     0.7551     6.6018   220.3840 </r>
       <r>     0.8502     7.3136   221.0795 </r>
       <r>     0.9453     9.2596   221.9601 </r>
       <r>     1.0404    13.7315   223.2659 </r>
       <r>     1.1355    19.3337   225.1045 </r>
       <r>     1.2306    22.7254   227.2657 </r>
       <r>     1.3257    21.7743   229.3364 </r>
       <r>     1.4208    17.7918   231.0283 </r>
       <r>     1.5159    14.2409   232.3826 </r>
       <r>     1.6110    13.4193   233.6587 </r>
       <r>     1.7061    15.0969   235.0944 </r>
       <r>     1.8012    18.0591   236.8118 </r>
       <r>     1.8963    21.5737   238.8634 </r>
       <r>     1.9914    25.0526   241.2459 </r>
       <r>     2.0864    28.2771   243.9350 </r>
       <r>     2.1815    31.6775   246.9475 </r>
       <r>     2.2766    34.1398   250.1941 </r>
       <r>     2.3717    32.8448   253.3176 </r>
       <r>     2.4668    27.7604   255.9575 </r>
       <r>     2.5619    23.1084   258.1551 </r>
       <r>     2.6570    22.1337   260.2599 </r>
       <r>     2.7521    23.1661   262.4630 </r>
       <r>     2.8472    22.2398   264.5779 </r>
       <r>     2.9423    17.6365   266.2551 </r>
       <r>     3.0374    10.9850   267.2998 </r>
       <r>     3.1325     5.1486   267.7894 </r>
       <r>     3.2276     1.7372   267.9546 </r>
       <r>     3.3227     0.4062   267.9932 </r>
       <r>     3.4178     0.0640   267.9993 </r>
       <r>     3.5129     0.0067   268.0000 </r>
       <r>     3.6080     0.0005   268.0000 </r>
       <r>     3.7031     0.0000   268.0000 </r>
       <r>     3.7982     0.0000   268.0000 </r>
       <r>     3.8933     0.0000   268.0000 </r>
       <r>     3.9884     0.0000   268.0000 </r>
       <r>     4.0835     0.0000   268.0000 </r>
       <r>     4.1786     0.0000   268.0000 </r>
       <r>     4.2737     0.0000   268.0000 </r>
       <r>     4.3688     0.0000   268.0000 </r>
       <r>     4.4639     0.0000   268.0000 </r>
       <r>     4.5590     0.0000   268.0000 </r>
       <r>     4.6541     0.0000   268.0000 </r>
       <r>     4.7492     0.0000   268.0000 </r>
       <r>     4.8443     0.0000   268.0000 </r>
       <r>     4.9394     0.0000   268.0000 </r>
      </set>
     </set>
    </array>
   </total>
  </dos>
 </calculation>
 <structure name="finalpos" >
  <crystal>
   <varray name="basis" >
    <v>      19.20000076       0.00000000       0.00000000 </v>
    <v>      -9.60000038      16.62768841       0.00000000 </v>
    <v>       0.00000000       0.00000000      15.00000000 </v>
   </varray>
   <i name="volume">   4788.77445334 </i>
   <varray name="rec_basis" >
    <v>       0.05208333       0.03007033       0.00000000 </v>
    <v>       0.00000000       0.06014065       0.00000000 </v>
    <v>       0.00000000       0.00000000       0.06666667 </v>
   </varray>
  </crystal>
  <varray name="positions" >
   <v>       0.16249772       0.26401102       0.21417340 </v>
   <v>       0.01253338       0.26540632       0.20221682 </v>
   <v>       0.08730111       0.18903297       0.20648085 </v>
   <v>       0.08832981       0.34082266       0.20613735 </v>
   <v>       0.16317021       0.34007524       0.21305278 </v>
   <v>       0.01218282       0.18963533       0.20191698 </v>
   <v>       0.23575749       0.26161852       0.22739621 </v>
   <v>       0.93885346       0.26596281       0.19991388 </v>
   <v>       0.08720733       0.11467270       0.20515787 </v>
   <v>       0.08871398       0.41529283       0.20520399 </v>
   <v>       0.23791811       0.41475195       0.22407372 </v>
   <v>       0.93838579       0.11565301       0.19865445 </v>
   <v>       0.29585434       0.25058171       0.21440457 </v>
   <v>       0.36743321       0.25297184       0.19999969 </v>
   <v>       0.08766536       0.05033172       0.20370449 </v>
   <v>       0.08820038       0.97959209       0.20218504 </v>
   <v>       0.30378015       0.97920946       0.19451330 </v>
   <v>       0.37527511       0.04968937       0.19318558 </v>
   <v>       0.66573553       0.26763970       0.20018122 </v>
   <v>       0.51321636       0.26238495       0.20297316 </v>
   <v>       0.59095780       0.19053377       0.19619938 </v>
   <v>       0.58744145       0.33921348       0.21654243 </v>
   <v>       0.66434990       0.34250838       0.20821624 </v>
   <v>       0.51432025       0.18813482       0.19547100 </v>
   <v>       0.74019076       0.26870584       0.19882506 </v>
   <v>       0.43961450       0.26462936       0.20382885 </v>
   <v>       0.59301011       0.11781223       0.19405129 </v>
   <v>       0.57583205       0.40709727       0.24497454 </v>
   <v>       0.73792258       0.41725503       0.20960427 </v>
   <v>       0.44046261       0.11362156       0.19261062 </v>
   <v>       0.80438783       0.26781118       0.19875744 </v>
   <v>       0.87467424       0.26685810       0.19909844 </v>
   <v>       0.59355019       0.05346290       0.19335595 </v>
   <v>       0.59373282       0.98290887       0.19288654 </v>
   <v>       0.80447959       0.97909100       0.19569017 </v>
   <v>       0.87458818       0.05042694       0.19695919 </v>
   <v>       0.16449751       0.76565642       0.19902082 </v>
   <v>       0.01351126       0.76550763       0.20133596 </v>
   <v>       0.08898344       0.68987298       0.20135857 </v>
   <v>       0.08878870       0.84106292       0.20022422 </v>
   <v>       0.16441133       0.84103533       0.19853424 </v>
   <v>       0.01367624       0.68996612       0.20237149 </v>
   <v>       0.23885258       0.76600905       0.19730989 </v>
   <v>       0.93895509       0.76479627       0.20141444 </v>
   <v>       0.08911686       0.61565649       0.20243129 </v>
   <v>       0.08867655       0.91526446       0.20093414 </v>
   <v>       0.23877076       0.91516218       0.19635114 </v>
   <v>       0.93922803       0.61596115       0.20450012 </v>
   <v>       0.30396310       0.76721327       0.19585952 </v>
   <v>       0.37553965       0.76849850       0.19450235 </v>
   <v>       0.08891249       0.55098446       0.20339381 </v>
   <v>       0.08878080       0.47990708       0.20441742 </v>
   <v>       0.29671559       0.48713538       0.21301757 </v>
   <v>       0.36854673       0.55673525       0.20284141 </v>
   <v>       0.66476416       0.76465023       0.19886626 </v>
   <v>       0.51464064       0.76926617       0.19402058 </v>
   <v>       0.58792648       0.69059324       0.20401301 </v>
   <v>       0.59134582       0.84334039       0.19354451 </v>
   <v>       0.66596576       0.84064901       0.19511151 </v>
   <v>       0.51367605       0.69401383       0.19853946 </v>
   <v>       0.73816960       0.76334597       0.20037518 </v>
   <v>       0.44080470       0.76998229       0.19355209 </v>
   <v>       0.57722285       0.61198576       0.21979112 </v>
   <v>       0.59351761       0.91817727       0.19279404 </v>
   <v>       0.74040814       0.91408586       0.19498629 </v>
   <v>       0.44051251       0.61813547       0.20347214 </v>
   <v>       0.80267432       0.76319346       0.20080447 </v>
   <v>       0.87392203       0.76382118       0.20116187 </v>
   <v>       0.59830779       0.55637656       0.23311757 </v>
   <v>       0.59899617       0.48729826       0.24428579 </v>
   <v>       0.80281465       0.48147833       0.20828889 </v>
   <v>       0.87421422       0.55195065       0.20645670 </v>
   <v>       0.31296180       0.29941913       0.34617429 </v>
   <v>       0.43295891       0.35356858       0.46034664 </v>
   <v>       0.56791185       0.36988722       0.37512064 </v>
   <v>       0.41680186       0.47773842       0.46521871 </v>
   <v>       0.32282944       0.43913324       0.32960524 </v>
   <v>       0.45173029       0.36752921       0.26592248 </v>
   <v>       0.53943497       0.49481989       0.36620946 </v>
   <v>       0.45969425       0.52745869       0.25058584 </v>
  </varray>
 </structure>
</modeling>
