Fe2O3                                   
           1
    19.200001    0.000000    0.000000
    -9.600000   16.627688    0.000000
     0.000000    0.000000   15.000000
   C    Pd
  72   8
Direct configuration=     1
   0.16054000  0.26146001  0.20649999
   0.01086000  0.26334000  0.19893999
   0.08523000  0.18656000  0.20074999
   0.08688000  0.33868000  0.20291001
   0.16158000  0.33776000  0.20851000
   0.01005000  0.18729000  0.19802999
   0.23461001  0.26036000  0.21719000
   0.93729001  0.26409000  0.19720000
   0.08520000  0.11221000  0.19970000
   0.08743000  0.41325000  0.20280001
   0.23650000  0.41185000  0.22171000
   0.93592000  0.11350000  0.19552000
   0.29563001  0.25071999  0.20352000
   0.36870000  0.25606999  0.19652000
   0.08616000  0.04813000  0.19920000
   0.08728000  0.97764999  0.19871000
   0.30260000  0.97814000  0.19520999
   0.37353000  0.04913000  0.19448000
   0.66380000  0.26499000  0.19855000
   0.51304001  0.26282999  0.20305000
   0.58851999  0.18810999  0.19660001
   0.58767003  0.33930001  0.21334000
   0.66358000  0.34068999  0.20474000
   0.51257002  0.18751000  0.19679999
   0.73798001  0.26552001  0.19697000
   0.44100002  0.26802999  0.20363000
   0.58903003  0.11412000  0.19505000
   0.57621002  0.40836000  0.23838000
   0.73787999  0.41479000  0.20563000
   0.43827999  0.11349000  0.19439000
   0.80241001  0.26510999  0.19663000
   0.87291998  0.26460999  0.19672000
   0.58819002  0.04888000  0.19473000
   0.58750999  0.97750997  0.19478001
   0.80103999  0.97759002  0.19404000
   0.87154001  0.04866000  0.19449000
   0.16402000  0.76371998  0.19900000
   0.01317000  0.76402003  0.19948000
   0.08831000  0.68809003  0.20020001
   0.08852000  0.83939999  0.19858000
   0.16406000  0.83920002  0.19800000
   0.01304000  0.68834001  0.20050000
   0.23797000  0.76322001  0.19909000
   0.93888998  0.76389003  0.19943000
   0.08815000  0.61374003  0.20097999
   0.08834000  0.91363001  0.19845000
   0.23820999  0.91346997  0.19647001
   0.93860000  0.61430001  0.20201001
   0.30201000  0.76217997  0.19949000
   0.37255001  0.76133001  0.20000000
   0.08787000  0.54904002  0.20158000
   0.08765000  0.47792000  0.20227000
   0.29780000  0.48205998  0.21082000
   0.37210000  0.54843003  0.21904001
   0.66422999  0.76296002  0.19950999
   0.51163000  0.76195002  0.20056000
   0.58961999  0.68813002  0.20769000
   0.58723003  0.83828002  0.19662000
   0.66307002  0.83840001  0.19602001
   0.51388001  0.68810999  0.20781000
   0.73878998  0.76374000  0.19922000
   0.43700999  0.76104999  0.20047000
   0.58191001  0.60961002  0.22341999
   0.58702999  0.91246003  0.19514000
   0.73673999  0.91263998  0.19431999
   0.44398999  0.61009002  0.22195000
   0.80337000  0.76380003  0.19919001
   0.87437999  0.76392001  0.19916999
   0.60768002  0.55770999  0.21957000
   0.61921000  0.49454001  0.23293001
   0.80276001  0.47911999  0.20491999
   0.87395000  0.54986000  0.20347001
   0.30938000  0.30834001  0.33107999
   0.43634999  0.38352999  0.43695000
   0.57573003  0.39326999  0.37412000
   0.42286000  0.51365000  0.47457001
   0.31924999  0.45142001  0.34200999
   0.45675001  0.37505001  0.25784001
   0.56143999  0.52679998  0.42552999
   0.47499999  0.53302997  0.28939000
Direct configuration=     2
   0.16065273  0.26160301  0.20657834
   0.01091189  0.26336017  0.19892146
   0.08508319  0.18639712  0.20072513
   0.08678341  0.33869977  0.20289984
   0.16165708  0.33768865  0.20859158
   0.01016044  0.18738420  0.19802664
   0.23427930  0.26022450  0.21686570
   0.93719887  0.26408514  0.19719770
   0.08520200  0.11225549  0.19970006
   0.08744118  0.41316937  0.20279460
   0.23622256  0.41173676  0.22133847
   0.93584715  0.11341813  0.19551467
   0.29542851  0.25091178  0.20396336
   0.36921012  0.25595704  0.19628689
   0.08615969  0.04807231  0.19921498
   0.08727321  0.97768949  0.19872091
   0.30254087  0.97807119  0.19521859
   0.37360397  0.04919641  0.19448581
   0.66359926  0.26475244  0.19853742
   0.51310428  0.26284507  0.20293810
   0.58854974  0.18821445  0.19660694
   0.58764412  0.33894898  0.21367013
   0.66356808  0.34091504  0.20498948
   0.51266690  0.18767041  0.19672628
   0.73804828  0.26555348  0.19694389
   0.44070669  0.26783166  0.20347929
   0.58903915  0.11393346  0.19506360
   0.57999635  0.41323740  0.23823253
   0.73801955  0.41495984  0.20561771
   0.43822064  0.11342135  0.19438565
   0.80237539  0.26511432  0.19664243
   0.87299982  0.26460988  0.19672558
   0.58820975  0.04908806  0.19472957
   0.58752261  0.97738722  0.19478406
   0.80093106  0.97747522  0.19405595
   0.87163172  0.04874814  0.19450620
   0.16394671  0.76368297  0.19900089
   0.01304656  0.76394106  0.19949476
   0.08831748  0.68812588  0.20020261
   0.08862755  0.83944262  0.19857903
   0.16398073  0.83919051  0.19800993
   0.01302186  0.68832527  0.20050871
   0.23802536  0.76323056  0.19908924
   0.93899254  0.76389275  0.19942383
   0.08814547  0.61373579  0.20098763
   0.08835163  0.91358880  0.19845374
   0.23826931  0.91351550  0.19648570
   0.93857090  0.61425214  0.20200151
   0.30197813  0.76218182  0.19949144
   0.37266506  0.76134185  0.19999984
   0.08787406  0.54902105  0.20158743
   0.08765352  0.47799167  0.20228201
   0.29739866  0.48139947  0.21163332
   0.37315840  0.54950799  0.21869632
   0.66473573  0.76335609  0.19945933
   0.51165312  0.76175785  0.20058969
   0.58921573  0.68734520  0.20786369
   0.58719371  0.83827267  0.19660852
   0.66295981  0.83811485  0.19602948
   0.51403637  0.68849362  0.20780295
   0.73862438  0.76377373  0.19919110
   0.43686273  0.76104368  0.20047583
   0.58250459  0.61100025  0.22383435
   0.58704370  0.91253456  0.19514012
   0.73688714  0.91276408  0.19433471
   0.44339025  0.60975252  0.22173351
   0.80351702  0.76379286  0.19918111
   0.87422736  0.76390585  0.19919231
   0.60848829  0.55380126  0.22186417
   0.61406199  0.49205583  0.23123749
   0.80266054  0.47902844  0.20486829
   0.87392886  0.54985613  0.20349088
   0.31050495  0.30912665  0.33108321
   0.43509601  0.38392829  0.43741761
   0.57578423  0.39418595  0.37378653
   0.42260656  0.51255923  0.47396889
   0.32025916  0.45127454  0.34244349
   0.45670750  0.37538219  0.25805793
   0.56145583  0.52695011  0.42407640
   0.47474111  0.53267902  0.28944091
Direct configuration=     3
   0.16058388  0.26151567  0.20653049
   0.01088020  0.26334785  0.19893278
   0.08517286  0.18649660  0.20074031
   0.08684240  0.33868770  0.20290605
   0.16161000  0.33773223  0.20854175
   0.01009299  0.18732666  0.19802869
   0.23448128  0.26030726  0.21706377
   0.93725454  0.26408811  0.19719911
   0.08520078  0.11222771  0.19970002
   0.08743435  0.41321861  0.20279790
   0.23639200  0.41180593  0.22156538
   0.93589164  0.11346813  0.19551792
   0.29555158  0.25079464  0.20369258
   0.36889856  0.25602602  0.19642926
   0.08615988  0.04810754  0.19920583
   0.08727735  0.97766536  0.19871424
   0.30257698  0.97811321  0.19521334
   0.37355879  0.04915585  0.19448226
   0.66372186  0.26489753  0.19854510
   0.51306502  0.26283586  0.20300644
   0.58853157  0.18815065  0.19660270
   0.58765994  0.33916337  0.21346850
   0.66357536  0.34077759  0.20483711
   0.51260773  0.18757244  0.19677130
   0.73800658  0.26553304  0.19695984
   0.44088584  0.26795279  0.20357134
   0.58903358  0.11404739  0.19505529
   0.57768384  0.41025852  0.23832260
   0.73793431  0.41485611  0.20562522
   0.43825688  0.11346328  0.19438831
   0.80239653  0.26511167  0.19663484
   0.87295106  0.26460995  0.19672217
   0.58819770  0.04896099  0.19472983
   0.58751490  0.97746219  0.19478159
   0.80099759  0.97754534  0.19404621
   0.87157571  0.04869431  0.19449631
   0.16399147  0.76370557  0.19900035
   0.01312195  0.76398929  0.19948575
   0.08831291  0.68810398  0.20020102
   0.08856186  0.83941658  0.19857962
   0.16402914  0.83919632  0.19800386
   0.01303294  0.68833427  0.20050339
   0.23799154  0.76322412  0.19908971
   0.93892990  0.76389109  0.19942760
   0.08814824  0.61373838  0.20098297
   0.08834452  0.91361397  0.19845146
   0.23823308  0.91348769  0.19647611
   0.93858867  0.61428138  0.20200670
   0.30199759  0.76218069  0.19949056
   0.37259479  0.76133462  0.19999994
   0.08787158  0.54903264  0.20158290
   0.08765137  0.47794790  0.20227468
   0.29764378  0.48180288  0.21113659
   0.37251198  0.54884962  0.21890623
   0.66442685  0.76311419  0.19949027
   0.51163900  0.76187522  0.20057156
   0.58946263  0.68782453  0.20775761
   0.58721589  0.83827716  0.19661553
   0.66302712  0.83828901  0.19602369
   0.51394088  0.68825932  0.20780726
   0.73872552  0.76375313  0.19920875
   0.43695267  0.76104753  0.20047227
   0.58214145  0.61015117  0.22358128
   0.58703533  0.91248904  0.19514005
   0.73679727  0.91268828  0.19432572
   0.44375654  0.60995865  0.22186573
   0.80342723  0.76379724  0.19918654
   0.87432058  0.76391450  0.19917868
   0.60799464  0.55618853  0.22046300
   0.61720615  0.49357305  0.23227120
   0.80272129  0.47908435  0.20489987
   0.87394177  0.54985849  0.20347813
   0.30981788  0.30864621  0.33108124
   0.43586188  0.38368503  0.43713202
   0.57575112  0.39362652  0.37399020
   0.42276135  0.51322542  0.47433602
   0.31964281  0.45136338  0.34217873
   0.45673346  0.37517931  0.25792483
   0.56144615  0.52685842  0.42496418
   0.47489922  0.53289336  0.28940982
Direct configuration=     4
   0.16056346  0.26157715  0.20661025
   0.01089057  0.26339142  0.19890951
   0.08507593  0.18642700  0.20072268
   0.08679392  0.33865153  0.20290697
   0.16155509  0.33761308  0.20863168
   0.01014309  0.18734152  0.19802281
   0.23421174  0.26017084  0.21669209
   0.93735666  0.26407217  0.19719583
   0.08519063  0.11215027  0.19969498
   0.08744360  0.41333352  0.20278885
   0.23596646  0.41153301  0.22114705
   0.93599242  0.11356756  0.19551438
   0.29574239  0.25104286  0.20419486
   0.36856337  0.25582435  0.19616846
   0.08615829  0.04816310  0.19922472
   0.08727219  0.97760102  0.19872756
   0.30265203  0.97817596  0.19522246
   0.37348668  0.04907426  0.19448868
   0.66365615  0.26480633  0.19855250
   0.51306792  0.26301098  0.20295153
   0.58852789  0.18814590  0.19660408
   0.58785737  0.33964048  0.21393341
   0.66351857  0.34081250  0.20514669
   0.51267722  0.18768127  0.19669834
   0.73793408  0.26555082  0.19692595
   0.44115511  0.26781127  0.20343522
   0.58904232  0.11427878  0.19507319
   0.58067532  0.41246397  0.23836677
   0.73781437  0.41479006  0.20562758
   0.43835094  0.11355404  0.19437801
   0.80249254  0.26511944  0.19664847
   0.87282530  0.26461360  0.19672912
   0.58821581  0.04868559  0.19472894
   0.58753343  0.97764798  0.19478555
   0.80116172  0.97770451  0.19406538
   0.87146867  0.04858287  0.19451107
   0.16395709  0.76371074  0.19900286
   0.01303029  0.76392871  0.19950189
   0.08829146  0.68810934  0.20020629
   0.08862355  0.83945299  0.19858071
   0.16398776  0.83917519  0.19801405
   0.01300995  0.68830712  0.20051438
   0.23797227  0.76323739  0.19908901
   0.93882778  0.76388570  0.19942148
   0.08814221  0.61373064  0.20099202
   0.08836672  0.91364550  0.19845611
   0.23818784  0.91342660  0.19649662
   0.93856638  0.61423393  0.20199887
   0.30205764  0.76218546  0.19949276
   0.37245755  0.76134990  0.19999766
   0.08787656  0.54906519  0.20159220
   0.08765544  0.47782976  0.20229017
   0.29812044  0.48192329  0.21217211
   0.37187095  0.54840971  0.21840953
   0.66471261  0.76337276  0.19940640
   0.51165197  0.76178857  0.20061196
   0.58951796  0.68748758  0.20785324
   0.58718149  0.83825955  0.19660028
   0.66302610  0.83813047  0.19603859
   0.51383039  0.68828281  0.20786618
   0.73892177  0.76383871  0.19916917
   0.43705807  0.76101107  0.20048389
   0.58319076  0.60890819  0.22443344
   0.58705396  0.91235506  0.19514091
   0.73666296  0.91252890  0.19434956
   0.44437811  0.61087476  0.22154426
   0.80324331  0.76378386  0.19917891
   0.87442116  0.76389347  0.19920454
   0.60795715  0.55661828  0.22257225
   0.61252794  0.49065695  0.23022712
   0.80288039  0.47925702  0.20483741
   0.87388877  0.54982347  0.20349894
   0.31111589  0.30950136  0.33100818
   0.43442200  0.38409887  0.43770178
   0.57571917  0.39459981  0.37373140
   0.42249429  0.51198953  0.47368994
   0.32074165  0.45116397  0.34267023
   0.45676262  0.37559347  0.25819173
   0.56149566  0.52705535  0.42327701
   0.47476880  0.53263808  0.28923831
Direct configuration=     5
   0.16057076  0.26155518  0.20658174
   0.01088687  0.26337584  0.19891783
   0.08511057  0.18645188  0.20072898
   0.08681125  0.33866446  0.20290664
   0.16157472  0.33765566  0.20859954
   0.01012518  0.18733621  0.19802491
   0.23430807  0.26021960  0.21682492
   0.93732016  0.26407786  0.19719700
   0.08519426  0.11217795  0.19969678
   0.08744029  0.41329245  0.20279209
   0.23611855  0.41163055  0.22129656
   0.93595640  0.11353202  0.19551564
   0.29567419  0.25095415  0.20401535
   0.36868317  0.25589643  0.19626167
   0.08615886  0.04814324  0.19921797
   0.08727403  0.97762402  0.19872280
   0.30262521  0.97815354  0.19521920
   0.37351245  0.04910342  0.19448638
   0.66367964  0.26483892  0.19854986
   0.51306688  0.26294839  0.20297116
   0.58852921  0.18814760  0.19660359
   0.58778681  0.33946996  0.21376726
   0.66353887  0.34080003  0.20503605
   0.51265239  0.18764237  0.19672442
   0.73796000  0.26554446  0.19693806
   0.44105888  0.26786185  0.20348387
   0.58903920  0.11419608  0.19506680
   0.57960618  0.41167575  0.23835099
   0.73785724  0.41481367  0.20562673
   0.43831732  0.11352160  0.19438169
   0.80245823  0.26511667  0.19664360
   0.87287024  0.26461229  0.19672664
   0.58820934  0.04878401  0.19472926
   0.58752681  0.97758158  0.19478414
   0.80110306  0.97764762  0.19405853
   0.87150693  0.04862270  0.19450579
   0.16396938  0.76370889  0.19900196
   0.01306305  0.76395036  0.19949612
   0.08829913  0.68810743  0.20020441
   0.08860150  0.83943998  0.19858032
   0.16400255  0.83918274  0.19801041
   0.01301816  0.68831682  0.20051045
   0.23797916  0.76323264  0.19908926
   0.93886428  0.76388763  0.19942367
   0.08814436  0.61373341  0.20098878
   0.08835878  0.91363423  0.19845445
   0.23820401  0.91344844  0.19648929
   0.93857435  0.61425089  0.20200167
   0.30203618  0.76218376  0.19949197
   0.37250660  0.76134444  0.19999847
   0.08787478  0.54905355  0.20158888
   0.08765398  0.47787198  0.20228463
   0.29795009  0.48188026  0.21180202
   0.37210005  0.54856693  0.21858705
   0.66461048  0.76328034  0.19943638
   0.51164733  0.76181954  0.20059752
   0.58949819  0.68760801  0.20781906
   0.58719378  0.83826585  0.19660573
   0.66302647  0.83818713  0.19603326
   0.51386988  0.68827442  0.20784512
   0.73885163  0.76380813  0.19918331
   0.43702040  0.76102410  0.20047974
   0.58281574  0.60935242  0.22412888
   0.58704730  0.91240295  0.19514061
   0.73671096  0.91258586  0.19434104
   0.44415597  0.61054735  0.22165915
   0.80330904  0.76378864  0.19918164
   0.87438521  0.76390099  0.19919530
   0.60797055  0.55646469  0.22181841
   0.61419991  0.49169915  0.23095766
   0.80282353  0.47919531  0.20485973
   0.87390772  0.54983599  0.20349150
   0.31065199  0.30919573  0.33103429
   0.43493661  0.38395096  0.43749815
   0.57573059  0.39425196  0.37382389
   0.42258973  0.51243123  0.47392084
   0.32034893  0.45123524  0.34249457
   0.45675220  0.37544545  0.25809634
   0.56147797  0.52698497  0.42388000
   0.47481542  0.53272932  0.28929960
Direct configuration=     6
   0.16042678  0.26141386  0.20662880
   0.01090544  0.26343033  0.19889879
   0.08510984  0.18645728  0.20072922
   0.08677589  0.33865056  0.20291006
   0.16141879  0.33760214  0.20864879
   0.01010852  0.18729333  0.19801523
   0.23429421  0.26011312  0.21650228
   0.93718405  0.26406423  0.19718918
   0.08517332  0.11223199  0.19969261
   0.08744857  0.41313379  0.20278685
   0.23620549  0.41183842  0.22095515
   0.93587606  0.11345377  0.19550832
   0.29566082  0.25119489  0.20450607
   0.36886328  0.25582488  0.19610601
   0.08615801  0.04802670  0.19923355
   0.08726847  0.97767480  0.19873667
   0.30255302  0.97806704  0.19523186
   0.37364212  0.04922231  0.19449190
   0.66371098  0.26487787  0.19857811
   0.51325725  0.26331071  0.20300446
   0.58851475  0.18814540  0.19659624
   0.58810022  0.34006282  0.21417326
   0.66345575  0.34073629  0.20535470
   0.51267787  0.18772166  0.19666130
   0.73800691  0.26555154  0.19689889
   0.44078263  0.26778838  0.20336670
   0.58903318  0.11391453  0.19507967
   0.58104092  0.41066757  0.23841172
   0.73800112  0.41499826  0.20565136
   0.43830233  0.11352005  0.19436885
   0.80231585  0.26512714  0.19665491
   0.87304499  0.26461493  0.19673499
   0.58823285  0.04914770  0.19473290
   0.58754267  0.97730852  0.19478820
   0.80087357  0.97740824  0.19407893
   0.87169215  0.04880699  0.19452354
   0.16396496  0.76369190  0.19900557
   0.01307724  0.76396642  0.19950807
   0.08828200  0.68809756  0.20021155
   0.08852551  0.83939528  0.19858552
   0.16401632  0.83919687  0.19801828
   0.01296498  0.68828521  0.20052021
   0.23798394  0.76324313  0.19908818
   0.93891162  0.76387879  0.19942182
   0.08813985  0.61375530  0.20099696
   0.08838611  0.91360419  0.19845859
   0.23824866  0.91348029  0.19650618
   0.93858050  0.61422962  0.20199525
   0.30195552  0.76219433  0.19949164
   0.37269272  0.76135719  0.19999865
   0.08787836  0.54899836  0.20159904
   0.08765955  0.47805445  0.20229498
   0.29779023  0.48136049  0.21280203
   0.37262950  0.54916386  0.21820060
   0.66445450  0.76300387  0.19941334
   0.51170380  0.76197956  0.20059892
   0.58984966  0.68740560  0.20796439
   0.58715040  0.83817004  0.19660192
   0.66308068  0.83822471  0.19603659
   0.51410380  0.68818256  0.20788476
   0.73886695  0.76393031  0.19913921
   0.43689413  0.76097556  0.20049161
   0.58361507  0.60904178  0.22492080
   0.58706707  0.91255502  0.19513943
   0.73684906  0.91269897  0.19436313
   0.44364862  0.61033539  0.22141879
   0.80352095  0.76377682  0.19917373
   0.87421623  0.76387765  0.19921650
   0.60791124  0.55732317  0.22347237
   0.61104715  0.49080416  0.22886782
   0.80263563  0.47903141  0.20480650
   0.87395690  0.54989956  0.20350115
   0.31182556  0.30992182  0.33089094
   0.43363481  0.38428310  0.43806826
   0.57562560  0.39508795  0.37381048
   0.42236465  0.51136251  0.47344207
   0.32127822  0.45100262  0.34285869
   0.45681117  0.37579132  0.25824875
   0.56158761  0.52717814  0.42235829
   0.47461440  0.53253128  0.28895833
Direct configuration=     7
   0.16046880  0.26145510  0.20661507
   0.01090002  0.26341443  0.19890435
   0.08511005  0.18645570  0.20072915
   0.08678621  0.33865462  0.20290906
   0.16146429  0.33761776  0.20863442
   0.01011338  0.18730584  0.19801806
   0.23429826  0.26014419  0.21659644
   0.93722377  0.26406821  0.19719146
   0.08517943  0.11221622  0.19969383
   0.08744615  0.41318009  0.20278838
   0.23618012  0.41177776  0.22105478
   0.93589951  0.11347661  0.19551046
   0.29566472  0.25112464  0.20436287
   0.36881072  0.25584576  0.19615143
   0.08615826  0.04806071  0.19922900
   0.08727009  0.97765998  0.19873263
   0.30257409  0.97809228  0.19522816
   0.37360428  0.04918762  0.19449029
   0.66370183  0.26486650  0.19856986
   0.51320170  0.26320498  0.20299474
   0.58851897  0.18814604  0.19659838
   0.58800876  0.33988982  0.21405478
   0.66348001  0.34075489  0.20526171
   0.51267043  0.18769852  0.19667972
   0.73799322  0.26554947  0.19691032
   0.44086325  0.26780982  0.20340089
   0.58903494  0.11399669  0.19507591
   0.58062224  0.41096178  0.23839399
   0.73795913  0.41494439  0.20564418
   0.43830671  0.11352051  0.19437259
   0.80235740  0.26512409  0.19665161
   0.87299400  0.26461416  0.19673255
   0.58822599  0.04904157  0.19473184
   0.58753804  0.97738820  0.19478702
   0.80094054  0.97747810  0.19407297
   0.87163810  0.04875321  0.19451836
   0.16396625  0.76369686  0.19900452
   0.01307310  0.76396173  0.19950458
   0.08828700  0.68810044  0.20020946
   0.08854769  0.83940833  0.19858400
   0.16401230  0.83919275  0.19801599
   0.01298050  0.68829443  0.20051736
   0.23798255  0.76324007  0.19908850
   0.93889781  0.76388137  0.19942236
   0.08814116  0.61374891  0.20099458
   0.08837814  0.91361295  0.19845738
   0.23823563  0.91347099  0.19650125
   0.93857871  0.61423583  0.20199712
   0.30197906  0.76219124  0.19949173
   0.37263840  0.76135347  0.19999860
   0.08787732  0.54901447  0.20159607
   0.08765792  0.47800121  0.20229196
   0.29783688  0.48151217  0.21251021
   0.37247500  0.54898967  0.21831337
   0.66450002  0.76308455  0.19942006
   0.51168732  0.76193286  0.20059851
   0.58974710  0.68746466  0.20792198
   0.58716306  0.83819799  0.19660303
   0.66306486  0.83821374  0.19603562
   0.51403554  0.68820937  0.20787319
   0.73886248  0.76389466  0.19915208
   0.43693097  0.76098972  0.20048814
   0.58338181  0.60913243  0.22468970
   0.58706130  0.91251064  0.19513978
   0.73680876  0.91266597  0.19435668
   0.44379668  0.61039724  0.22148893
   0.80345911  0.76378027  0.19917604
   0.87426554  0.76388446  0.19921031
   0.60792855  0.55707265  0.22298971
   0.61196719  0.49106533  0.22947768
   0.80269046  0.47907924  0.20482203
   0.87394255  0.54988101  0.20349834
   0.31148309  0.30970993  0.33093278
   0.43401470  0.38418618  0.43790189
   0.57565624  0.39484400  0.37381439
   0.42243034  0.51167438  0.47358178
   0.32100703  0.45107050  0.34275244
   0.45679396  0.37569039  0.25820428
   0.56155562  0.52712177  0.42280235
   0.47467306  0.53258907  0.28905792
Direct configuration=     8
   0.16036939  0.26132415  0.20665457
   0.01084704  0.26337428  0.19888717
   0.08509459  0.18645272  0.20074226
   0.08674235  0.33860948  0.20291751
   0.16138345  0.33763198  0.20867821
   0.01005599  0.18729657  0.19800644
   0.23421465  0.26006953  0.21630777
   0.93733074  0.26405691  0.19718478
   0.08515485  0.11209942  0.19968759
   0.08745166  0.41335689  0.20278167
   0.23600570  0.41165957  0.22076712
   0.93600512  0.11358674  0.19550540
   0.29585344  0.25134183  0.20479800
   0.36877055  0.25580672  0.19607474
   0.08615242  0.04814889  0.19924456
   0.08726924  0.97758107  0.19874636
   0.30265720  0.97815823  0.19524007
   0.37359786  0.04917018  0.19449524
   0.66370613  0.26494983  0.19862683
   0.51341411  0.26358457  0.20308034
   0.58851479  0.18811936  0.19658403
   0.58835694  0.33988177  0.21421910
   0.66360365  0.34073627  0.20555884
   0.51273403  0.18787657  0.19663936
   0.73793460  0.26556249  0.19686763
   0.44074068  0.26784044  0.20331708
   0.58902459  0.11420311  0.19509100
   0.58135505  0.40963926  0.23853490
   0.73775721  0.41475915  0.20570476
   0.43838033  0.11363776  0.19435708
   0.80244001  0.26513341  0.19665827
   0.87283175  0.26461899  0.19673815
   0.58824383  0.04876794  0.19473519
   0.58756096  0.97758601  0.19478829
   0.80112484  0.97765551  0.19409536
   0.87147181  0.04858488  0.19453083
   0.16395863  0.76369695  0.19900861
   0.01309740  0.76397455  0.19951464
   0.08826695  0.68808126  0.20021798
   0.08847412  0.83936047  0.19859210
   0.16403253  0.83919106  0.19802341
   0.01295041  0.68828139  0.20052612
   0.23795128  0.76324686  0.19908704
   0.93879687  0.76387086  0.19942286
   0.08813673  0.61371294  0.20100588
   0.08839681  0.91365544  0.19846261
   0.23819927  0.91342538  0.19651936
   0.93863523  0.61426954  0.20199103
   0.30202372  0.76220288  0.19949252
   0.37255183  0.76136403  0.19999726
   0.08788163  0.54910960  0.20160593
   0.08766268  0.47781098  0.20230374
   0.29818944  0.48149965  0.21351540
   0.37251574  0.54914327  0.21791409
   0.66426952  0.76268046  0.19943425
   0.51178632  0.76202361  0.20059885
   0.59001558  0.68716145  0.20818583
   0.58720577  0.83815893  0.19660686
   0.66304950  0.83826924  0.19603140
   0.51442195  0.68803894  0.20791019
   0.73908692  0.76402621  0.19910299
   0.43701630  0.76093730  0.20050181
   0.58364619  0.61073609  0.22544344
   0.58708100  0.91237572  0.19513905
   0.73666817  0.91248551  0.19438137
   0.44353015  0.61039277  0.22122637
   0.80338968  0.76377416  0.19916653
   0.87438255  0.76385981  0.19922921
   0.60812233  0.55710922  0.22428166
   0.60935872  0.49017412  0.22746617
   0.80283692  0.47925711  0.20476809
   0.87386775  0.54981942  0.20349951
   0.31256138  0.31032779  0.33070822
   0.43283980  0.38444355  0.43851290
   0.57549437  0.39563023  0.37404422
   0.42224833  0.51077085  0.47328915
   0.32181551  0.45079277  0.34304474
   0.45699386  0.37604980  0.25821947
   0.56171353  0.52730330  0.42133016
   0.47438518  0.53237220  0.28861043
Direct configuration=     9
   0.16039885  0.26136296  0.20664286
   0.01086274  0.26338618  0.19889226
   0.08509917  0.18645360  0.20073838
   0.08675535  0.33862286  0.20291501
   0.16140741  0.33762776  0.20866523
   0.01007300  0.18729932  0.19800988
   0.23423943  0.26009166  0.21639332
   0.93729904  0.26406026  0.19718676
   0.08516214  0.11213404  0.19968944
   0.08745003  0.41330450  0.20278366
   0.23605739  0.41169459  0.22085237
   0.93597382  0.11355410  0.19550690
   0.29579751  0.25127747  0.20466905
   0.36878246  0.25581829  0.19609747
   0.08615415  0.04812275  0.19923995
   0.08726949  0.97760446  0.19874229
   0.30263257  0.97813869  0.19523654
   0.37359976  0.04917535  0.19449378
   0.66370485  0.26492513  0.19860995
   0.51335116  0.26347208  0.20305497
   0.58851603  0.18812727  0.19658828
   0.58825376  0.33988416  0.21417041
   0.66356700  0.34074179  0.20547079
   0.51271519  0.18782380  0.19665132
   0.73795197  0.26555864  0.19688028
   0.44077701  0.26783137  0.20334192
   0.58902766  0.11414193  0.19508653
   0.58113788  0.41003119  0.23849314
   0.73781705  0.41481405  0.20568680
   0.43835851  0.11360301  0.19436168
   0.80241553  0.26513064  0.19665630
   0.87287983  0.26461756  0.19673649
   0.58823854  0.04884903  0.19473420
   0.58755417  0.97752739  0.19478791
   0.80107022  0.97760293  0.19408872
   0.87152109  0.04863476  0.19452714
   0.16396089  0.76369692  0.19900740
   0.01309020  0.76397075  0.19951166
   0.08827289  0.68808695  0.20021546
   0.08849592  0.83937465  0.19858970
   0.16402653  0.83919156  0.19802121
   0.01295933  0.68828526  0.20052353
   0.23796055  0.76324485  0.19908747
   0.93882678  0.76387398  0.19942271
   0.08813805  0.61372360  0.20100253
   0.08839127  0.91364285  0.19846106
   0.23821004  0.91343890  0.19651400
   0.93861848  0.61425955  0.20199284
   0.30201049  0.76219943  0.19949229
   0.37257749  0.76136090  0.19999765
   0.08788035  0.54908140  0.20160301
   0.08766127  0.47786735  0.20230025
   0.29808496  0.48150336  0.21321751
   0.37250367  0.54909775  0.21803242
   0.66433783  0.76280021  0.19943005
   0.51175698  0.76199672  0.20059875
   0.58993601  0.68725131  0.20810764
   0.58719311  0.83817050  0.19660572
   0.66305405  0.83825280  0.19603265
   0.51430744  0.68808945  0.20789922
   0.73902040  0.76398722  0.19911754
   0.43699102  0.76095284  0.20049776
   0.58356784  0.61026084  0.22522007
   0.58707516  0.91241571  0.19513927
   0.73670983  0.91253899  0.19437406
   0.44360913  0.61039410  0.22130419
   0.80341026  0.76377597  0.19916935
   0.87434787  0.76386711  0.19922361
   0.60806490  0.55709838  0.22389879
   0.61013175  0.49043823  0.22806229
   0.80279351  0.47920439  0.20478407
   0.87388992  0.54983767  0.20349916
   0.31224183  0.31014469  0.33077477
   0.43318798  0.38436728  0.43833182
   0.57554234  0.39539722  0.37397611
   0.42230227  0.51103861  0.47337588
   0.32157591  0.45087508  0.34295811
   0.45693462  0.37594329  0.25821497
   0.56166673  0.52724950  0.42176645
   0.47447049  0.53243647  0.28874305
Direct configuration=    10
   0.16039178  0.26132389  0.20666475
   0.01081380  0.26333628  0.19888317
   0.08505185  0.18637818  0.20075877
   0.08670885  0.33864617  0.20292641
   0.16138777  0.33763523  0.20868481
   0.01003734  0.18730142  0.19800138
   0.23418513  0.26005783  0.21620923
   0.93720630  0.26405406  0.19717754
   0.08513426  0.11218937  0.19968658
   0.08744426  0.41316985  0.20278138
   0.23599757  0.41163443  0.22068790
   0.93586732  0.11345384  0.19549849
   0.29595529  0.25140856  0.20494591
   0.36859136  0.25581481  0.19610288
   0.08615011  0.04802226  0.19925005
   0.08726919  0.97766004  0.19875491
   0.30264747  0.97813505  0.19524888
   0.37364972  0.04921793  0.19449642
   0.66376905  0.26500002  0.19867622
   0.51337938  0.26353557  0.20310905
   0.58849921  0.18812748  0.19657715
   0.58846655  0.33919163  0.21402798
   0.66385009  0.34067290  0.20563594
   0.51274658  0.18804090  0.19664972
   0.73795573  0.26557632  0.19684695
   0.44098758  0.26797647  0.20330982
   0.58901029  0.11409000  0.19509282
   0.58128435  0.40993476  0.23879804
   0.73792734  0.41489969  0.20576277
   0.43838663  0.11370442  0.19434870
   0.80239116  0.26513826  0.19665660
   0.87292741  0.26461812  0.19674195
   0.58825426  0.04890492  0.19474065
   0.58757394  0.97749126  0.19478973
   0.80097745  0.97749914  0.19410965
   0.87159295  0.04870639  0.19454019
   0.16395388  0.76369796  0.19901183
   0.01305517  0.76397308  0.19951812
   0.08825456  0.68806335  0.20022365
   0.08847759  0.83936894  0.19859792
   0.16401516  0.83917310  0.19802745
   0.01297673  0.68829350  0.20053007
   0.23797774  0.76324437  0.19908671
   0.93893991  0.76386435  0.19942785
   0.08813536  0.61378741  0.20101018
   0.08839298  0.91358585  0.19846642
   0.23826074  0.91348372  0.19652601
   0.93857743  0.61421089  0.20199198
   0.30201240  0.76221054  0.19949255
   0.37260159  0.76136273  0.19999818
   0.08788329  0.54898248  0.20161361
   0.08766671  0.47803492  0.20230480
   0.29840555  0.48153359  0.21399735
   0.37207347  0.54881178  0.21771775
   0.66448579  0.76281779  0.19941659
   0.51186350  0.76177704  0.20061786
   0.59003731  0.68731572  0.20835074